/*--------------------------------*- C++ -*----------------------------------*\
| =========                 |                                                 |
| \\      /  F ield         | OpenFOAM Extend Project: Open source CFD        |
|  \\    /   O peration     | Version:  1.6-ext                               |
|   \\  /    A nd           | Web:      www.extend-project.de                 |
|    \\/     M anipulation  |                                                 |
\*---------------------------------------------------------------------------*/
FoamFile
{
    version     2.0;
    format      ascii;
    class       volScalarField;
    location    "1000";
    object      nut;
}
// * * * * * * * * * * * * * * * * * * * * * * * * * * * * * * * * * * * * * //

dimensions      [0 2 -1 0 0 0 0];

internalField   nonuniform List<scalar> 
100
(
3.11838e-05
3.20193e-05
3.13636e-05
3.01801e-05
2.91799e-05
2.82875e-05
2.73889e-05
2.63175e-05
2.47023e-05
2.17706e-05
3.48389e-05
6.75339e-05
7.66471e-05
8.31107e-05
8.5439e-05
8.42503e-05
7.94094e-05
7.0224e-05
5.4175e-05
2.45955e-05
3.67327e-05
0.000100855
0.000105609
0.000110603
0.000110052
0.000105869
9.78629e-05
8.36097e-05
5.69765e-05
2.31647e-05
3.82441e-05
0.000129215
0.000125058
0.000127046
0.000119425
0.000110357
9.68135e-05
7.6302e-05
4.96417e-05
2.17828e-05
3.95167e-05
0.000133815
0.000123559
0.000116641
0.000108126
9.75519e-05
8.24738e-05
6.32847e-05
4.4577e-05
2.3942e-05
3.95705e-05
0.000129301
0.000113448
9.99691e-05
9.09442e-05
8.15039e-05
6.91137e-05
5.57204e-05
4.77658e-05
2.80817e-05
3.85521e-05
0.000119918
0.000100041
8.62754e-05
7.92298e-05
7.26054e-05
6.42247e-05
5.73226e-05
6.07603e-05
3.04951e-05
3.66942e-05
0.00010947
9.17887e-05
8.27254e-05
7.98592e-05
7.69172e-05
7.22985e-05
6.96796e-05
8.67681e-05
3.23042e-05
3.40725e-05
9.33898e-05
8.66951e-05
8.80274e-05
9.18628e-05
9.33436e-05
9.19387e-05
8.5236e-05
8.9418e-05
3.35127e-05
2.83969e-05
3.1391e-05
3.00097e-05
3.00069e-05
3.12259e-05
3.28758e-05
3.42106e-05
3.42859e-05
3.21668e-05
3.04166e-05
)
;

boundaryField
{
    movingWall
    {
        type            nutWallFunction;
        Cmu             0.09;
        kappa           0.41;
        E               9.8;
        value           uniform 0;
    }
    left
    {
        type            nutWallFunction;
        Cmu             0.09;
        kappa           0.41;
        E               9.8;
        value           uniform 0;
    }
    right
    {
        type            calculated;
        value           nonuniform List<scalar> 10(2.17706e-05 2.45955e-05 2.31647e-05 2.17828e-05 2.3942e-05 2.80817e-05 3.04951e-05 3.23042e-05 3.35127e-05 3.04166e-05);
    }
    bottom
    {
        type            nutWallFunction;
        Cmu             0.09;
        kappa           0.41;
        E               9.8;
        value           uniform 0;
    }
    frontAndBack
    {
        type            empty;
    }
}


// ************************************************************************* //
