/*--------------------------------*- C++ -*----------------------------------*\
| =========                 |                                                 |
| \\      /  F ield         | OpenFOAM Extend Project: Open source CFD        |
|  \\    /   O peration     | Version:  1.6-ext                               |
|   \\  /    A nd           | Web:      www.extend-project.de                 |
|    \\/     M anipulation  |                                                 |
\*---------------------------------------------------------------------------*/
FoamFile
{
    version     2.0;
    format      ascii;
    class       volScalarField;
    location    "1000";
    object      p_rgh;
}
// * * * * * * * * * * * * * * * * * * * * * * * * * * * * * * * * * * * * * //

dimensions      [0 2 -2 0 0 0 0];

internalField   nonuniform List<scalar> 
100
(
-2.21351e-11
-0.00933704
-0.0169412
-0.0193109
-0.0188713
-0.0171721
-0.0150642
-0.0133917
-0.0169062
-0.0178348
-0.0110507
-0.0192773
-0.0227884
-0.0233293
-0.0217882
-0.0191968
-0.0168518
-0.0185401
-0.0223372
-0.0212351
-0.016947
-0.0248046
-0.0261535
-0.0256536
-0.0237047
-0.0214622
-0.022203
-0.026882
-0.0320671
-0.0279419
-0.0204276
-0.0280726
-0.0280981
-0.0269301
-0.0254521
-0.025261
-0.028659
-0.035537
-0.0421784
-0.0365299
-0.0211838
-0.0288469
-0.0284444
-0.0276638
-0.0272902
-0.0288433
-0.0342185
-0.0426406
-0.0503841
-0.044838
-0.0203566
-0.0289412
-0.0290237
-0.0289098
-0.0293525
-0.0317839
-0.038022
-0.0472042
-0.0548996
-0.050996
-0.0192584
-0.0294907
-0.0305839
-0.0309075
-0.0315866
-0.0339361
-0.0397993
-0.0488101
-0.0556512
-0.052961
-0.0189586
-0.0311328
-0.0330848
-0.0335097
-0.0339099
-0.0354249
-0.0400123
-0.0481978
-0.0536839
-0.050237
-0.0221835
-0.0342551
-0.0359711
-0.0359432
-0.0357088
-0.0362064
-0.0393172
-0.0456161
-0.050133
-0.045622
-0.0275784
-0.0356441
-0.0364704
-0.0357157
-0.0346117
-0.0341264
-0.0354339
-0.0389452
-0.0439324
-0.0487867
)
;

boundaryField
{
    movingWall
    {
        type            buoyantPressure;
        gradient        uniform 0;
        rho             rhok;
        value           nonuniform List<scalar> 10(-0.0275784 -0.0356441 -0.0364704 -0.0357157 -0.0346117 -0.0341264 -0.0354339 -0.0389452 -0.0439324 -0.0487867);
    }
    left
    {
        type            buoyantPressure;
        gradient        nonuniform List<scalar> 10(1.84238 2.69726 3.60214 4.56787 5.61858 6.72461 7.88745 9.08725 10.2271 10.6946);
        rho             rhok;
        value           nonuniform List<scalar> 10(0.00921189 0.00243557 0.00106366 0.00241173 0.00690909 0.0132665 0.0201789 0.0264777 0.028952 0.0258948);
    }
    right
    {
        type            buoyantPressure;
        gradient        nonuniform List<scalar> 10(-0.792554 -2.59036 -4.55042 -6.59783 -8.71787 -10.9121 -13.1932 -15.5843 -18.1128 -20.8592);
        rho             rhok;
        value           nonuniform List<scalar> 10(-0.0217975 -0.0341869 -0.0506941 -0.0695191 -0.0884273 -0.105556 -0.118927 -0.128159 -0.136186 -0.153083);
    }
    bottom
    {
        type            buoyantPressure;
        gradient        uniform 0;
        rho             rhok;
        value           nonuniform List<scalar> 10(-2.21351e-11 -0.00933704 -0.0169412 -0.0193109 -0.0188713 -0.0171721 -0.0150642 -0.0133917 -0.0169062 -0.0178348);
    }
    frontAndBack
    {
        type            empty;
    }
}


// ************************************************************************* //
