/*--------------------------------*- C++ -*----------------------------------*\
| =========                 |                                                 |
| \\      /  F ield         | OpenFOAM Extend Project: Open source CFD        |
|  \\    /   O peration     | Version:  1.6-ext                               |
|   \\  /    A nd           | Web:      www.extend-project.de                 |
|    \\/     M anipulation  |                                                 |
\*---------------------------------------------------------------------------*/
FoamFile
{
    version     2.0;
    format      ascii;
    class       volScalarField;
    location    "1000";
    object      p_rgh;
}
// * * * * * * * * * * * * * * * * * * * * * * * * * * * * * * * * * * * * * //

dimensions      [0 2 -2 0 0 0 0];

internalField   nonuniform List<scalar> 
100
(
4.30703e-13
-0.0143953
-0.0269401
-0.0320348
-0.0329357
-0.031742
-0.029143
-0.0256783
-0.0222372
-0.0203526
-0.0171624
-0.0297835
-0.0358852
-0.038089
-0.0375903
-0.0352443
-0.0318018
-0.0278069
-0.0245055
-0.0256568
-0.0260229
-0.0378405
-0.0405394
-0.0412269
-0.0398988
-0.0372093
-0.0338423
-0.0303722
-0.0290082
-0.0345307
-0.0311178
-0.042377
-0.0431715
-0.0426363
-0.0410305
-0.0386588
-0.0362198
-0.0347316
-0.0358313
-0.0432237
-0.0319063
-0.0429899
-0.043095
-0.0426482
-0.0418487
-0.0409067
-0.0408027
-0.0428321
-0.0478397
-0.0573429
-0.0302187
-0.0425338
-0.0433411
-0.0438667
-0.0441793
-0.0450353
-0.0475724
-0.0530513
-0.0621313
-0.0665304
-0.0286706
-0.0431843
-0.04538
-0.046614
-0.0477045
-0.049765
-0.0539728
-0.0612852
-0.0718381
-0.0724639
-0.0288977
-0.0457563
-0.0486919
-0.0500328
-0.0512747
-0.0534919
-0.0579358
-0.0652932
-0.0740339
-0.0748876
-0.033488
-0.0496768
-0.0520063
-0.052778
-0.0534695
-0.0549845
-0.0585681
-0.0650492
-0.0702746
-0.0715164
-0.0441864
-0.0525529
-0.0529712
-0.0527633
-0.05253
-0.0529763
-0.0549661
-0.0587927
-0.0618935
-0.0671624
)
;

boundaryField
{
    movingWall
    {
        type            buoyantPressure;
        gradient        uniform 0;
        rho             rhok;
        value           nonuniform List<scalar> 10(-0.0441864 -0.0525529 -0.0529712 -0.0527633 -0.05253 -0.0529763 -0.0549661 -0.0587927 -0.0618935 -0.0671624);
    }
    left
    {
        type            buoyantPressure;
        gradient        nonuniform List<scalar> 10(2.85163 4.1376 5.49041 6.92666 8.48067 10.098 11.7881 13.5357 15.2936 16.8214);
        rho             rhok;
        value           nonuniform List<scalar> 10(0.0142581 0.00352558 0.0014291 0.00351547 0.0104971 0.0202713 0.0302699 0.0387808 0.0429799 0.0399206);
    }
    right
    {
        type            buoyantPressure;
        gradient        nonuniform List<scalar> 10(-1.02756 -2.8411 -4.24907 -5.2264 -4.9621 -5.83806 -7.49408 -9.35665 -11.4981 -13.9727);
        rho             rhok;
        value           nonuniform List<scalar> 10(-0.0254904 -0.0398623 -0.0557761 -0.0693557 -0.0821534 -0.0957207 -0.109934 -0.121671 -0.129007 -0.137026);
    }
    bottom
    {
        type            buoyantPressure;
        gradient        uniform 0;
        rho             rhok;
        value           nonuniform List<scalar> 10(4.30703e-13 -0.0143953 -0.0269401 -0.0320348 -0.0329357 -0.031742 -0.029143 -0.0256783 -0.0222372 -0.0203526);
    }
    frontAndBack
    {
        type            empty;
    }
}


// ************************************************************************* //
