/*--------------------------------*- C++ -*----------------------------------*\
| =========                 |                                                 |
| \\      /  F ield         | OpenFOAM Extend Project: Open source CFD        |
|  \\    /   O peration     | Version:  1.6-ext                               |
|   \\  /    A nd           | Web:      www.extend-project.de                 |
|    \\/     M anipulation  |                                                 |
\*---------------------------------------------------------------------------*/
FoamFile
{
    version     2.0;
    format      ascii;
    class       surfaceScalarField;
    location    "1000";
    object      phi;
}
// * * * * * * * * * * * * * * * * * * * * * * * * * * * * * * * * * * * * * //

dimensions      [0 3 -1 0 0 0 0];

internalField   nonuniform List<scalar> 
180
(
1.02335e-05
-1.02335e-05
1.3824e-05
-3.59056e-06
1.48171e-05
-9.93035e-07
1.41829e-05
6.34172e-07
1.24409e-05
1.74205e-06
9.91636e-06
2.52449e-06
6.67161e-06
3.24476e-06
1.86852e-06
4.80309e-06
-3.0216e-06
4.89012e-06
-3.0216e-06
5.68551e-06
-1.5919e-05
8.11899e-06
-6.02405e-06
8.74428e-06
-1.61832e-06
8.16642e-06
1.21203e-06
6.67976e-06
3.22871e-06
4.38218e-06
4.82207e-06
7.57055e-07
6.86988e-06
-3.29996e-06
8.86011e-06
-4.87811e-06
6.46826e-06
-7.89971e-06
2.64843e-06
-1.85674e-05
3.59046e-06
-6.96609e-06
3.69635e-06
-1.7242e-06
3.26746e-06
1.64092e-06
2.21473e-06
4.28144e-06
2.27258e-07
6.80954e-06
-2.66119e-06
9.75832e-06
-4.97684e-06
1.11758e-05
-5.05479e-06
6.54621e-06
-1.29545e-05
4.13166e-07
-1.89806e-05
1.61542e-07
-6.71446e-06
-3.78937e-08
-1.52477e-06
-3.0887e-07
1.9119e-06
-9.89951e-07
4.96252e-06
-2.2812e-06
8.1008e-06
-3.86237e-06
1.13395e-05
-4.8969e-06
1.22103e-05
-4.17071e-06
5.82002e-06
-1.71252e-05
-1.1937e-06
-1.77869e-05
-2.08994e-06
-5.81822e-06
-2.52857e-06
-1.08614e-06
-2.72679e-06
2.11012e-06
-2.94841e-06
5.18414e-06
-3.29841e-06
8.45079e-06
-3.64531e-06
1.16864e-05
-3.7206e-06
1.22856e-05
-2.7499e-06
4.84932e-06
-1.98751e-05
-2.24993e-06
-1.55369e-05
-3.65881e-06
-4.40934e-06
-4.36146e-06
-3.83495e-07
-4.43962e-06
2.18829e-06
-4.10127e-06
4.84579e-06
-3.48165e-06
7.83117e-06
-2.66627e-06
1.0871e-05
-1.99526e-06
1.16146e-05
-9.40957e-07
3.79501e-06
-2.08161e-05
-3.13172e-06
-1.24052e-05
-5.05667e-06
-2.4844e-06
-5.94039e-06
5.00226e-07
-5.79476e-06
2.04266e-06
-4.89528e-06
3.94631e-06
-3.40317e-06
6.33905e-06
-1.50327e-06
8.97111e-06
1.11864e-07
9.99945e-06
1.05028e-06
2.85659e-06
-1.97658e-05
-4.02293e-06
-8.38229e-06
-6.43409e-06
-7.32409e-08
-7.29105e-06
1.35719e-06
-6.89573e-06
1.64733e-06
-5.5296e-06
2.58018e-06
-3.35112e-06
4.16058e-06
-4.9117e-07
6.11116e-06
2.09461e-06
7.41367e-06
2.73924e-06
2.21196e-06
-1.70265e-05
-5.06531e-06
-3.31699e-06
-7.04543e-06
1.90688e-06
-7.41575e-06
1.72751e-06
-6.7895e-06
1.02108e-06
-5.19487e-06
9.85545e-07
-2.66411e-06
1.62982e-06
8.28747e-07
2.6183e-06
4.2088e-06
4.03362e-06
4.78343e-06
1.63732e-06
-1.22431e-05
-3.31699e-06
-1.4101e-06
3.17409e-07
1.33849e-06
2.32404e-06
3.95386e-06
6.57216e-06
1.06058e-05
1.22431e-05
)
;

boundaryField
{
    movingWall
    {
        type            calculated;
        value           nonuniform List<scalar> 10(2.03288e-20 2.03288e-20 2.37169e-20 -1.18585e-19 1.69407e-20 3.38813e-20 0 3.38813e-20 3.38813e-20 -1.35525e-19);
    }
    left
    {
        type            calculated;
        value           nonuniform List<scalar> 10(0 0 -8.47033e-22 -8.47033e-22 0 0 0 -3.38813e-21 0 0);
    }
    right
    {
        type            calculated;
        value           nonuniform List<scalar> 10(-8.47033e-22 0 1.69407e-21 0 -1.69407e-21 0 0 -3.38813e-21 3.38813e-21 0);
    }
    bottom
    {
        type            calculated;
        value           uniform 0;
    }
    frontAndBack
    {
        type            empty;
    }
}


// ************************************************************************* //
