/*--------------------------------*- C++ -*----------------------------------*\
| =========                 |                                                 |
| \\      /  F ield         | OpenFOAM Extend Project: Open source CFD        |
|  \\    /   O peration     | Version:  1.6-ext                               |
|   \\  /    A nd           | Web:      www.extend-project.de                 |
|    \\/     M anipulation  |                                                 |
\*---------------------------------------------------------------------------*/
FoamFile
{
    version     2.0;
    format      ascii;
    class       surfaceScalarField;
    location    "1000";
    object      phi;
}
// * * * * * * * * * * * * * * * * * * * * * * * * * * * * * * * * * * * * * //

dimensions      [0 3 -1 0 0 0 0];

internalField   nonuniform List<scalar> 
180
(
1.28424e-05
-1.28424e-05
1.75775e-05
-4.73512e-06
1.94089e-05
-1.83138e-06
1.9473e-05
-6.41328e-08
1.82914e-05
1.18164e-06
1.61825e-05
2.10882e-06
1.3274e-05
2.9085e-06
9.57949e-06
3.69455e-06
5.02894e-06
4.55055e-06
5.02894e-06
7.02312e-06
-1.98655e-05
1.0135e-05
-7.84698e-06
1.13157e-05
-3.01212e-06
1.14089e-05
-1.57332e-07
1.06706e-05
1.92e-06
9.23477e-06
3.54462e-06
7.19345e-06
4.94982e-06
4.63428e-06
6.25373e-06
1.79012e-06
7.39471e-06
6.81906e-06
3.1706e-06
-2.30361e-05
4.3204e-06
-8.99678e-06
4.72726e-06
-3.41898e-06
4.8077e-06
-2.37771e-07
4.47235e-06
2.25535e-06
3.5729e-06
4.44406e-06
2.15869e-06
6.36403e-06
4.42679e-07
7.96974e-06
-8.86444e-07
8.72383e-06
5.93261e-06
3.72997e-07
-2.34091e-05
1.11644e-08
-8.63494e-06
-1.2702e-07
-3.28079e-06
-2.52976e-07
-1.11814e-07
-7.12251e-07
2.71462e-06
-1.56396e-06
5.29577e-06
-2.72439e-06
7.52446e-06
-3.81459e-06
9.05994e-06
-3.91347e-06
8.82272e-06
2.01914e-06
-1.60544e-06
-2.18037e-05
-2.93993e-06
-7.30045e-06
-3.79063e-06
-2.43009e-06
-4.4784e-06
5.75955e-07
-5.12397e-06
3.36019e-06
-5.86661e-06
6.03842e-06
-6.65294e-06
8.31079e-06
-7.08598e-06
9.49298e-06
-6.26018e-06
7.99691e-06
-4.24104e-06
-2.84755e-06
-1.89561e-05
-5.03858e-06
-5.10943e-06
-6.56527e-06
-9.03398e-07
-7.48013e-06
1.49081e-06
-7.92408e-06
3.80415e-06
-8.10501e-06
6.21935e-06
-8.03861e-06
8.24438e-06
-7.39802e-06
8.85239e-06
-5.35218e-06
5.95107e-06
-9.59322e-06
-3.70291e-06
-1.52532e-05
-6.45541e-06
-2.35693e-06
-8.16086e-06
8.02057e-07
-8.82404e-06
2.15399e-06
-8.75768e-06
3.73778e-06
-8.14541e-06
5.60707e-06
-7.12425e-06
7.22323e-06
-5.66304e-06
7.39118e-06
-3.18344e-06
3.47147e-06
-1.27767e-05
-4.34582e-06
-1.09074e-05
-7.20282e-06
5.00069e-07
-8.53705e-06
2.13628e-06
-8.70658e-06
2.32352e-06
-8.00006e-06
3.03126e-06
-6.59365e-06
4.20066e-06
-4.74158e-06
5.37116e-06
-2.88743e-06
5.53703e-06
-5.66119e-07
1.15016e-06
-1.33428e-05
-5.35798e-06
-5.5494e-06
-7.25628e-06
2.39837e-06
-7.58564e-06
2.46564e-06
-7.04741e-06
1.78529e-06
-5.71209e-06
1.69594e-06
-3.64026e-06
2.12884e-06
-9.05981e-07
2.63689e-06
1.75409e-06
2.87696e-06
2.90259e-06
1.6554e-09
-1.04402e-05
-5.5494e-06
-3.15103e-06
-6.85383e-07
1.09991e-06
2.79584e-06
4.92468e-06
7.56157e-06
1.04385e-05
1.04402e-05
)
;

boundaryField
{
    movingWall
    {
        type            calculated;
        value           nonuniform List<scalar> 10(2.03288e-20 2.03288e-20 2.37169e-20 -1.18585e-19 1.69407e-20 3.38813e-20 0 3.38813e-20 3.38813e-20 -1.35525e-19);
    }
    left
    {
        type            calculated;
        value           nonuniform List<scalar> 10(-1.69407e-21 0 -8.47033e-22 0 -1.69407e-21 3.38813e-21 0 -3.38813e-21 6.77626e-21 0);
    }
    right
    {
        type            calculated;
        value           nonuniform List<scalar> 10(8.47033e-22 1.69407e-21 0 -3.38813e-21 -3.38813e-21 0 -1.69407e-21 0 0 6.77626e-21);
    }
    bottom
    {
        type            calculated;
        value           uniform 0;
    }
    frontAndBack
    {
        type            empty;
    }
}


// ************************************************************************* //
