/*--------------------------------*- C++ -*----------------------------------*\
| =========                 |                                                 |
| \\      /  F ield         | OpenFOAM Extend Project: Open source CFD        |
|  \\    /   O peration     | Version:  1.6-ext                               |
|   \\  /    A nd           | Web:      www.extend-project.de                 |
|    \\/     M anipulation  |                                                 |
\*---------------------------------------------------------------------------*/
FoamFile
{
    version     2.0;
    format      ascii;
    class       volScalarField;
    location    "1000";
    object      T;
}
// * * * * * * * * * * * * * * * * * * * * * * * * * * * * * * * * * * * * * //

dimensions      [0 0 0 1 0 0 0];

internalField   nonuniform List<scalar> 
100
(
321.448
324.738
325.984
326.389
326.715
326.984
327.197
327.409
328.658
348.612
325.722
332.477
334.073
334.021
333.213
332.086
330.894
329.996
331.547
356.932
328.967
338.84
339.871
338.785
336.741
334.64
332.903
332.286
337.711
367.135
331.84
343.387
342.947
340.502
338.049
336.307
336.141
339.509
351.032
377.978
334.749
345.956
344.717
342.377
341.027
341.301
344.585
353.207
370.356
398.2
337.335
348.667
348.019
347.084
347.113
349.312
354.984
365.647
381.844
400.344
339.758
352.075
352.906
353.148
354.234
357.311
363.413
373.276
385.622
395.58
341.989
355.559
357.551
358.535
360.131
363.103
368.248
375.994
384.098
390.608
343.863
358.024
360.255
361.649
363.227
365.499
369.021
374.778
378.621
385.095
344.447
358.092
360.339
361.631
362.823
364.315
366.386
369.149
370.393
379.01
)
;

boundaryField
{
    movingWall
    {
        type            zeroGradient;
    }
    left
    {
        type            fixedValue;
        value           uniform 273;
    }
    right
    {
        type            chtRcTemperature;
        K               kappaEff;
        radiation       0;
        remoteField     T;
        value           nonuniform List<scalar> 10(453.358 453.47 453.762 454.087 454.402 454.445 454.343 454.194 454.041 453.975);
    }
    bottom
    {
        type            zeroGradient;
    }
    frontAndBack
    {
        type            empty;
    }
}


// ************************************************************************* //
