/*--------------------------------*- C++ -*----------------------------------*\
| =========                 |                                                 |
| \\      /  F ield         | OpenFOAM Extend Project: Open source CFD        |
|  \\    /   O peration     | Version:  1.6-ext                               |
|   \\  /    A nd           | Web:      www.extend-project.de                 |
|    \\/     M anipulation  |                                                 |
\*---------------------------------------------------------------------------*/
FoamFile
{
    version     2.0;
    format      ascii;
    class       volScalarField;
    location    "1000";
    object      T;
}
// * * * * * * * * * * * * * * * * * * * * * * * * * * * * * * * * * * * * * //

dimensions      [0 0 0 1 0 0 0];

internalField   nonuniform List<scalar> 
100
(
304.301
306.48
307.15
307.396
307.597
307.786
308.294
312.859
354.662
381.216
307.369
311.798
312.496
312.071
311.251
310.6
312.287
331.535
362.526
373.925
309.719
316.272
316.469
315.046
313.411
313.159
321.517
342.834
364.164
369.101
311.803
319.604
318.766
316.512
315.456
318.177
329.463
348.773
363.593
365.721
313.91
321.669
320.387
318.812
319.09
323.513
334.966
351.528
362.008
362.99
315.843
323.822
323.028
322.386
323.505
328.206
338.384
352.358
359.848
360.542
317.668
326.449
326.707
326.744
328.136
332.197
340.326
351.961
357.309
358.149
319.316
329.252
330.589
331.186
332.559
335.587
341.365
351.076
354.135
355.636
320.387
331.558
333.257
334.319
335.617
337.748
341.655
348.877
350.642
352.886
318.424
330.729
333.002
334.11
335.111
336.654
339.215
343.322
345.014
349.548
)
;

boundaryField
{
    movingWall
    {
        type            zeroGradient;
    }
    left
    {
        type            fixedValue;
        value           uniform 273;
    }
    right
    {
        type            chtRcTemperature;
        K               kappaEff;
        radiation       0;
        remoteField     T;
        value           nonuniform List<scalar> 10(462.006 461.943 461.872 461.801 461.732 461.664 461.601 461.544 461.495 461.46);
    }
    bottom
    {
        type            zeroGradient;
    }
    frontAndBack
    {
        type            empty;
    }
}


// ************************************************************************* //
