/*--------------------------------*- C++ -*----------------------------------*\
| =========                 |                                                 |
| \\      /  F ield         | OpenFOAM Extend Project: Open source CFD        |
|  \\    /   O peration     | Version:  1.6-ext                               |
|   \\  /    A nd           | Web:      www.extend-project.de                 |
|    \\/     M anipulation  |                                                 |
\*---------------------------------------------------------------------------*/
FoamFile
{
    version     2.0;
    format      ascii;
    class       volVectorField;
    location    "1000";
    object      U;
}
// * * * * * * * * * * * * * * * * * * * * * * * * * * * * * * * * * * * * * //

dimensions      [0 1 -1 0 0 0 0];

internalField   nonuniform List<vector> 
100
(
(0.0857387 -0.127642 0)
(0.156451 -0.0883908 -8.51442e-24)
(0.191076 -0.073085 0)
(0.19926 -0.0617268 0)
(0.191655 -0.0498576 1.9163e-24)
(0.17459 -0.0375733 1.58178e-24)
(0.149371 -0.0241845 -1.43532e-24)
(0.116734 -0.0090627 2.91689e-24)
(0.0751667 0.0092921 0)
(0.0324073 0.0272491 0)
(0.0369546 -0.179819 -7.83313e-24)
(0.0930929 -0.0858315 -2.55422e-23)
(0.110573 -0.0477927 -8.62287e-40)
(0.116328 -0.0241102 4.75308e-24)
(0.112647 -0.00673436 0)
(0.101358 0.00772874 2.92865e-24)
(0.0836917 0.0218931 -5.81916e-24)
(0.0609042 0.0369879 3.28202e-24)
(0.0319513 0.0538137 4.07488e-24)
(0.00926967 0.0597492 -4.397e-24)
(0.0100343 -0.225579 1.36376e-24)
(0.0449095 -0.102096 -1.03645e-23)
(0.044876 -0.0488296 -7.50254e-24)
(0.0485176 -0.0186774 3.05283e-24)
(0.0482464 0.00608833 2.2447e-24)
(0.0418874 0.0279944 0)
(0.0298728 0.0486531 -2.66254e-24)
(0.0140665 0.0684663 3.44883e-24)
(-0.00479582 0.0846472 7.16302e-24)
(-0.00832441 0.0707767 -9.51112e-26)
(-0.00627265 -0.236478 0)
(0.00745693 -0.0912789 1.37283e-25)
(-0.0037229 -0.0320381 -5.20159e-25)
(-0.00120464 -0.000953804 0)
(-0.00335884 0.0258713 2.95553e-25)
(-0.0100404 0.0516486 7.03114e-25)
(-0.0208595 0.0757105 0)
(-0.0336312 0.0958879 3.65744e-24)
(-0.0409759 0.103595 4.40211e-24)
(-0.0306608 0.0627626 0)
(-0.0161694 -0.224845 0)
(-0.0203698 -0.07611 8.02063e-24)
(-0.0357799 -0.0212317 2.89099e-24)
(-0.0417921 0.0121122 0)
(-0.0475834 0.0425833 0)
(-0.0544181 0.0713452 -1.15471e-24)
(-0.0626442 0.0965643 -4.39135e-26)
(-0.0706601 0.112666 3.28233e-24)
(-0.0699584 0.103693 1.09127e-23)
(-0.0465097 0.000731553 -2.23415e-24)
(-0.0230946 -0.200025 0)
(-0.0382435 -0.0537025 1.06752e-23)
(-0.0604142 -0.00205098 7.09832e-24)
(-0.0718236 0.029107 0)
(-0.0775422 0.0566556 0)
(-0.0804614 0.0835098 0)
(-0.0811593 0.105558 -4.89833e-25)
(-0.0789538 0.113711 3.99004e-24)
(-0.0740247 0.0879854 1.79702e-23)
(-0.0205187 -0.0728527 2.90834e-26)
(-0.0287771 -0.165171 0)
(-0.0504714 -0.0250429 9.81973e-24)
(-0.0765344 0.0190841 5.31191e-24)
(-0.0868735 0.0410722 0)
(-0.0891807 0.0616875 0)
(-0.085419 0.082639 0)
(-0.0768942 0.0987123 0)
(-0.0642733 0.09835 2.51267e-24)
(-0.0597093 0.0604129 1.48812e-23)
(0.0103391 -0.120746 0)
(-0.0344904 -0.121684 0)
(-0.0589364 0.00618859 5.36946e-24)
(-0.0822062 0.0371398 1.16861e-24)
(-0.0884002 0.0461885 0)
(-0.0851679 0.0570538 0)
(-0.0740775 0.0698098 0)
(-0.0572039 0.0796206 0)
(-0.0368003 0.0748424 -3.39951e-25)
(-0.0342825 0.0326451 4.20616e-24)
(0.0372618 -0.148941 0)
(-0.0416346 -0.073038 0)
(-0.0681557 0.0348943 -7.427e-25)
(-0.0761416 0.0438565 -1.41302e-24)
(-0.0750608 0.0404772 0)
(-0.0652756 0.0408234 0)
(-0.0478043 0.0443698 0)
(-0.0244927 0.0472814 0)
(0.00625005 0.0423835 -6.01422e-24)
(0.0136629 -0.00347532 -9.25416e-24)
(0.0603703 -0.138049 0)
(-0.0315027 -0.0031388 0)
(-0.0539868 0.040585 -2.46682e-24)
(-0.0178837 0.0275582 -2.10433e-24)
(0.0033468 0.0142857 0)
(0.0195053 0.00723452 0)
(0.0373526 0.00387549 0)
(0.0610261 0.000366308 0)
(0.0893447 -0.00456674 -3.50798e-24)
(0.112306 -0.0221565 -3.94553e-24)
(0.104723 -0.0907394 0)
)
;

boundaryField
{
    movingWall
    {
        type            fixedValue;
        value           uniform (0.96 -0.24 0);
    }
    left
    {
        type            fixedValue;
        value           uniform (0 0 0);
    }
    right
    {
        type            fixedValue;
        value           uniform (0 0 0);
    }
    bottom
    {
        type            fixedValue;
        value           uniform (0 0 0);
    }
    frontAndBack
    {
        type            empty;
    }
}


// ************************************************************************* //
