/*--------------------------------*- C++ -*----------------------------------*\
| =========                 |                                                 |
| \\      /  F ield         | OpenFOAM Extend Project: Open source CFD        |
|  \\    /   O peration     | Version:  1.6-ext                               |
|   \\  /    A nd           | Web:      www.extend-project.de                 |
|    \\/     M anipulation  |                                                 |
\*---------------------------------------------------------------------------*/
FoamFile
{
    version     2.0;
    format      ascii;
    class       volScalarField;
    location    "1000";
    object      T;
}
// * * * * * * * * * * * * * * * * * * * * * * * * * * * * * * * * * * * * * //

dimensions      [0 0 0 1 0 0 0];

internalField   nonuniform List<scalar> 
100
(
441.092
442.835
444.571
446.3
448.026
465.252
466.974
468.696
470.418
472.139
441.103
442.843
444.576
446.304
448.029
465.252
466.974
468.696
470.418
472.139
441.128
442.86
444.587
446.311
448.034
465.253
466.975
468.696
470.418
472.139
441.162
442.88
444.6
446.32
448.041
465.254
466.975
468.697
470.418
472.139
441.196
442.901
444.612
446.328
448.047
465.255
466.976
468.697
470.418
472.139
441.22
442.914
444.62
446.334
448.052
465.256
466.977
468.698
470.418
472.139
441.218
442.913
444.621
446.335
448.053
465.256
466.977
468.698
470.419
472.14
441.19
442.901
444.616
446.333
448.053
465.257
466.977
468.698
470.419
472.14
441.155
442.883
444.608
446.33
448.051
465.257
466.977
468.698
470.419
472.14
441.127
442.871
444.602
446.327
448.049
465.257
466.977
468.698
470.419
472.14
)
;

boundaryField
{
    topAndBottom
    {
        type            zeroGradient;
    }
    left
    {
        type            chtRcTemperature;
        K               k;
        radiation       0;
        remoteField     T;
        value           nonuniform List<scalar> 10(440.214 440.226 440.257 440.303 440.348 440.386 440.384 440.338 440.287 440.241);
    }
    right
    {
        type            fixedValue;
        value           uniform 473;
    }
    frontAndBack
    {
        type            empty;
    }
}


// ************************************************************************* //
