/*--------------------------------*- C++ -*----------------------------------*\
| =========                 |                                                 |
| \\      /  F ield         | OpenFOAM Extend Project: Open source CFD        |
|  \\    /   O peration     | Version:  1.6-ext                               |
|   \\  /    A nd           | Web:      www.extend-project.de                 |
|    \\/     M anipulation  |                                                 |
\*---------------------------------------------------------------------------*/
FoamFile
{
    version     2.0;
    format      ascii;
    class       volScalarField;
    location    "1000";
    object      T;
}
// * * * * * * * * * * * * * * * * * * * * * * * * * * * * * * * * * * * * * //

dimensions      [0 0 0 1 0 0 0];

internalField   nonuniform List<scalar> 
100
(
441.965
443.66
445.347
447.029
448.708
465.464
467.139
468.814
470.488
472.163
441.975
443.667
445.352
447.033
448.711
465.464
467.139
468.814
470.488
472.163
441.995
443.68
445.361
447.04
448.716
465.465
467.14
468.814
470.489
472.163
442.021
443.697
445.373
447.048
448.723
465.467
467.141
468.815
470.489
472.163
442.049
443.715
445.385
447.057
448.73
465.468
467.142
468.815
470.489
472.163
442.072
443.73
445.396
447.065
448.737
465.469
467.143
468.816
470.49
472.163
442.078
443.737
445.402
447.071
448.742
465.47
467.143
468.817
470.49
472.163
442.075
443.739
445.406
447.075
448.746
465.471
467.144
468.817
470.49
472.163
442.068
443.737
445.407
447.077
448.748
465.472
467.144
468.817
470.49
472.163
442.063
443.736
445.406
447.077
448.749
465.472
467.145
468.817
470.49
472.163
)
;

boundaryField
{
    topAndBottom
    {
        type            zeroGradient;
    }
    left
    {
        type            chtRcTemperature;
        K               k;
        radiation       0;
        remoteField     T;
        value           nonuniform List<scalar> 10(441.113 441.125 441.15 441.182 441.218 441.251 441.252 441.244 441.234 441.224);
    }
    right
    {
        type            fixedValue;
        value           uniform 473;
    }
    frontAndBack
    {
        type            empty;
    }
}


// ************************************************************************* //
