/*--------------------------------*- C++ -*----------------------------------*\
| =========                 |                                                 |
| \\      /  F ield         | OpenFOAM Extend Project: Open source CFD        |
|  \\    /   O peration     | Version:  1.6-ext                               |
|   \\  /    A nd           | Web:      www.extend-project.de                 |
|    \\/     M anipulation  |                                                 |
\*---------------------------------------------------------------------------*/
FoamFile
{
    version     2.0;
    format      ascii;
    class       volScalarField;
    location    "1000";
    object      G;
}
// * * * * * * * * * * * * * * * * * * * * * * * * * * * * * * * * * * * * * //

dimensions      [1 0 -3 0 0 0 0];

internalField   nonuniform List<scalar> 
100
(
4514.13
4519.23
4524.48
4529.84
4535.3
4540.86
4546.5
4552.22
4558.02
4563.88
4514.9
4519.95
4525.14
4530.46
4535.88
4541.4
4547
4552.68
4558.43
4564.22
4515.5
4520.53
4525.69
4530.97
4536.36
4541.85
4547.43
4553.08
4558.79
4564.55
4515.95
4520.97
4526.11
4531.38
4536.75
4542.22
4547.77
4553.4
4559.1
4564.86
4516.26
4521.28
4526.42
4531.68
4537.04
4542.5
4548.05
4553.67
4559.36
4565.11
4516.44
4521.46
4526.61
4531.87
4537.24
4542.7
4548.24
4553.86
4559.55
4565.31
4516.49
4521.52
4526.68
4531.96
4537.34
4542.81
4548.36
4553.99
4559.68
4565.44
4516.39
4521.44
4526.63
4531.94
4537.35
4542.84
4548.4
4554.04
4559.75
4565.52
4516.12
4521.22
4526.47
4531.83
4537.27
4542.79
4548.38
4554.03
4559.75
4565.53
4515.63
4520.86
4526.2
4531.63
4537.12
4542.67
4548.28
4553.95
4559.69
4565.51
)
;

boundaryField
{
    movingWall
    {
        type            MarshakRadiation;
        T               T;
        emissivity      1;
        value           nonuniform List<scalar> 10(4515.21 4520.61 4526.03 4531.5 4537.01 4542.58 4548.2 4553.88 4559.63 4565.49);
    }
    left
    {
        type            MarshakRadiation;
        T               T;
        emissivity      1;
        value           nonuniform List<scalar> 10(4511.69 4512.46 4513.06 4513.51 4513.82 4514 4514.05 4513.95 4513.68 4513.19);
    }
    right
    {
        type            MarshakRadiation;
        T               T;
        emissivity      1;
        value           nonuniform List<scalar> 10(4566.78 4567.11 4567.45 4567.76 4568.01 4568.22 4568.35 4568.43 4568.44 4568.42);
    }
    bottom
    {
        type            MarshakRadiation;
        T               T;
        emissivity      1;
        value           nonuniform List<scalar> 10(4513.63 4518.8 4524.09 4529.48 4534.97 4540.55 4546.21 4551.96 4557.78 4563.75);
    }
    frontAndBack
    {
        type            empty;
    }
}


// ************************************************************************* //
