/*--------------------------------*- C++ -*----------------------------------*\
| =========                 |                                                 |
| \\      /  F ield         | OpenFOAM Extend Project: Open source CFD        |
|  \\    /   O peration     | Version:  1.6-ext                               |
|   \\  /    A nd           | Web:      www.extend-project.de                 |
|    \\/     M anipulation  |                                                 |
\*---------------------------------------------------------------------------*/
FoamFile
{
    version     2.0;
    format      ascii;
    class       volScalarField;
    location    "1000";
    object      k;
}
// * * * * * * * * * * * * * * * * * * * * * * * * * * * * * * * * * * * * * //

dimensions      [0 2 -2 0 0 0 0];

internalField   nonuniform List<scalar> 
100
(
0.000126551
0.000128981
0.000122968
0.000115462
0.000109234
0.000103898
9.83719e-05
9.18419e-05
8.37496e-05
7.24656e-05
0.000147284
0.000186357
0.000184791
0.000201484
0.000215185
0.000215418
0.000199659
0.000171439
0.000138927
8.82902e-05
0.000163641
0.000227591
0.00019894
0.00022193
0.000244697
0.000243881
0.000219776
0.00017907
0.000143168
8.98176e-05
0.000179411
0.000262861
0.000205629
0.000227471
0.000251009
0.000248048
0.000215904
0.000164185
0.000127047
8.33405e-05
0.000194269
0.000266525
0.000222704
0.000245278
0.000260706
0.000243638
0.000199806
0.000146985
0.000109414
7.70958e-05
0.000207528
0.000278481
0.000230102
0.000213847
0.000197298
0.000174581
0.000148823
0.000127701
0.000113788
7.5388e-05
0.000220295
0.000290042
0.000218855
0.000194845
0.000188284
0.00018882
0.000198899
0.000222913
0.000253003
0.000182281
0.000235469
0.000315283
0.000296949
0.000312475
0.000332279
0.000343744
0.000347273
0.000361676
0.000334948
0.000224174
0.000320463
0.000476342
0.000586623
0.00073406
0.000875562
0.00096252
0.000948961
0.000723795
0.000386702
0.000254509
0.000234695
0.000279149
0.000314603
0.000355337
0.000396972
0.000428199
0.000423654
0.000386644
0.000341238
0.000289517
)
;

boundaryField
{
    movingWall
    {
        type            kqRWallFunction;
        value           nonuniform List<scalar> 10(0.000234695 0.000279149 0.000314603 0.000355337 0.000396972 0.000428199 0.000423654 0.000386644 0.000341238 0.000289517);
    }
    left
    {
        type            kqRWallFunction;
        value           nonuniform List<scalar> 10(0.000126551 0.000147284 0.000163641 0.000179411 0.000194269 0.000207528 0.000220295 0.000235469 0.000320463 0.000234695);
    }
    right
    {
        type            kqRWallFunction;
        value           nonuniform List<scalar> 10(7.24656e-05 8.82902e-05 8.98176e-05 8.33405e-05 7.70958e-05 7.5388e-05 0.000182281 0.000224174 0.000254509 0.000289517);
    }
    bottom
    {
        type            kqRWallFunction;
        value           nonuniform List<scalar> 10(0.000126551 0.000128981 0.000122968 0.000115462 0.000109234 0.000103898 9.83719e-05 9.18419e-05 8.37496e-05 7.24656e-05);
    }
    frontAndBack
    {
        type            empty;
    }
}


// ************************************************************************* //
