/*--------------------------------*- C++ -*----------------------------------*\
| =========                 |                                                 |
| \\      /  F ield         | OpenFOAM Extend Project: Open source CFD        |
|  \\    /   O peration     | Version:  1.6-ext                               |
|   \\  /    A nd           | Web:      www.extend-project.de                 |
|    \\/     M anipulation  |                                                 |
\*---------------------------------------------------------------------------*/
FoamFile
{
    version     2.0;
    format      ascii;
    class       volScalarField;
    location    "1000";
    object      p_rgh;
}
// * * * * * * * * * * * * * * * * * * * * * * * * * * * * * * * * * * * * * //

dimensions      [0 2 -2 0 0 0 0];

internalField   nonuniform List<scalar> 
100
(
1.51426e-14
-0.00292403
-0.00541484
-0.00658178
-0.00709727
-0.00736283
-0.00747354
-0.00741848
-0.00731306
-0.00716197
-0.00229298
-0.00586715
-0.00721411
-0.00766255
-0.00774055
-0.00769545
-0.00760879
-0.0074672
-0.00752736
-0.0085739
-0.00340082
-0.00871695
-0.00948165
-0.00937074
-0.00892487
-0.00850073
-0.00817325
-0.00794665
-0.00829807
-0.0112255
-0.00375339
-0.0111042
-0.0114077
-0.0108635
-0.0101463
-0.00954689
-0.00909161
-0.00884219
-0.00951472
-0.0138941
-0.00346416
-0.0124141
-0.0128339
-0.0123407
-0.0118821
-0.0115722
-0.0114772
-0.0116503
-0.0125306
-0.0159356
-0.00256974
-0.0137307
-0.0147841
-0.0151916
-0.0155179
-0.0158996
-0.0163478
-0.016614
-0.0164913
-0.0174689
-0.00157005
-0.0158361
-0.0180341
-0.0189471
-0.0198703
-0.0208906
-0.0218505
-0.0222688
-0.0218086
-0.0214889
-0.000269275
-0.0163311
-0.018915
-0.0200267
-0.0209446
-0.0218264
-0.0225192
-0.0220095
-0.0210921
-0.0207161
0.00245998
-0.0149475
-0.018019
-0.0192134
-0.0201125
-0.0209434
-0.0215563
-0.0196357
-0.017711
-0.016936
0.0102108
-0.00221397
-0.00797766
-0.0113977
-0.0137332
-0.0156473
-0.0169844
-0.0164218
-0.0138071
-0.0098573
)
;

boundaryField
{
    movingWall
    {
        type            buoyantPressure;
        gradient        nonuniform List<scalar> 10(-5.01503 -2.84319 -1.93282 -1.43557 -1.12364 -0.920256 -0.815055 -0.774388 -0.721466 -0.171763);
        rho             rhok;
        value           nonuniform List<scalar> 10(-0.0148643 -0.0164299 -0.0176418 -0.0185756 -0.0193514 -0.0202486 -0.0210597 -0.0202937 -0.0174144 -0.0107161);
    }
    left
    {
        type            buoyantPressure;
        gradient        nonuniform List<scalar> 10(0.521018 1.62521 2.94863 4.44795 6.10885 7.85901 9.66977 11.2365 12.2589 12.1025);
        rho             rhok;
        value           nonuniform List<scalar> 10(0.00260509 0.00583309 0.0113423 0.0184864 0.0270801 0.0367253 0.0467788 0.0559132 0.0637546 0.0707232);
    }
    right
    {
        type            buoyantPressure;
        gradient        nonuniform List<scalar> 10(-0.745129 -2.22132 -3.59427 -4.76527 -5.76339 -6.41722 -6.75014 -8.38088 -10.0744 -11.9177);
        rho             rhok;
        value           nonuniform List<scalar> 10(-0.0108876 -0.0196805 -0.0291969 -0.0377205 -0.0447526 -0.049555 -0.0552396 -0.0626205 -0.0673079 -0.0694458);
    }
    bottom
    {
        type            buoyantPressure;
        gradient        uniform 0;
        rho             rhok;
        value           nonuniform List<scalar> 10(1.51426e-14 -0.00292403 -0.00541484 -0.00658178 -0.00709727 -0.00736283 -0.00747354 -0.00741848 -0.00731306 -0.00716197);
    }
    frontAndBack
    {
        type            empty;
    }
}


// ************************************************************************* //
