/*--------------------------------*- C++ -*----------------------------------*\
| =========                 |                                                 |
| \\      /  F ield         | OpenFOAM Extend Project: Open source CFD        |
|  \\    /   O peration     | Version:  1.6-ext                               |
|   \\  /    A nd           | Web:      www.extend-project.de                 |
|    \\/     M anipulation  |                                                 |
\*---------------------------------------------------------------------------*/
FoamFile
{
    version     2.0;
    format      ascii;
    class       volScalarField;
    location    "1000";
    object      G;
}
// * * * * * * * * * * * * * * * * * * * * * * * * * * * * * * * * * * * * * //

dimensions      [1 0 -3 0 0 0 0];

internalField   nonuniform List<scalar> 
200
(
1942.8
1943.81
1944.78
1945.71
1946.6
1947.43
1948.2
1948.93
1949.59
1950.17
1943.06
1944.05
1945.01
1945.93
1946.79
1947.61
1948.38
1949.09
1949.73
1950.31
1943.34
1944.33
1945.28
1946.18
1947.04
1947.85
1948.61
1949.31
1949.95
1950.54
1943.67
1944.65
1945.59
1946.49
1947.34
1948.14
1948.89
1949.59
1950.23
1950.82
1944.03
1945.01
1945.95
1946.84
1947.69
1948.48
1949.23
1949.92
1950.56
1951.16
1944.44
1945.42
1946.35
1947.24
1948.08
1948.87
1949.62
1950.31
1950.95
1951.54
1944.89
1945.87
1946.81
1947.69
1948.53
1949.32
1950.06
1950.74
1951.38
1951.97
1945.39
1946.37
1947.3
1948.19
1949.02
1949.81
1950.54
1951.23
1951.87
1952.45
1945.94
1946.92
1947.85
1948.73
1949.57
1950.35
1951.08
1951.77
1952.4
1952.98
1946.54
1947.52
1948.44
1949.33
1950.16
1950.94
1951.67
1952.36
1952.99
1953.57
4083.81
4084.32
4084.81
4085.3
4085.79
4086.28
4086.76
4087.23
4087.7
4088.16
4083.8
4084.29
4084.78
4085.27
4085.76
4086.24
4086.71
4087.19
4087.65
4088.12
4083.78
4084.27
4084.75
4085.24
4085.72
4086.2
4086.68
4087.15
4087.62
4088.07
4083.76
4084.24
4084.73
4085.21
4085.69
4086.17
4086.65
4087.12
4087.58
4088.04
4083.73
4084.22
4084.7
4085.19
4085.67
4086.15
4086.62
4087.09
4087.55
4088.01
4083.71
4084.19
4084.68
4085.16
4085.65
4086.13
4086.6
4087.07
4087.53
4087.99
4083.68
4084.17
4084.66
4085.14
4085.63
4086.11
4086.58
4087.05
4087.52
4087.97
4083.65
4084.15
4084.64
4085.13
4085.61
4086.09
4086.57
4087.04
4087.5
4087.96
4083.63
4084.13
4084.62
4085.12
4085.6
4086.09
4086.56
4087.03
4087.5
4087.96
4083.6
4084.11
4084.61
4085.11
4085.6
4086.08
4086.56
4087.03
4087.5
4087.96
)
;

boundaryField
{
    movingWall
    {
        type            MarshakRadiation;
        T               T;
        emissivity      1;
        value           nonuniform List<scalar> 10(1946.86 1947.84 1948.77 1949.65 1950.48 1951.26 1951.99 1952.67 1953.31 1953.89);
    }
    left
    {
        type            MarshakRadiation;
        T               T;
        emissivity      1;
        value           nonuniform List<scalar> 10(1942.28 1942.54 1942.83 1943.15 1943.52 1943.93 1944.38 1944.88 1945.43 1946.02);
    }
    right
    {
        type            MarshakRadiation;
        T               T;
        emissivity      1;
        value           nonuniform List<scalar> 10(1950.39 1950.55 1950.81 1951.1 1951.43 1951.81 1952.24 1952.72 1953.25 1953.83);
    }
    bottom
    {
        type            MarshakRadiation;
        T               T;
        emissivity      1;
        value           nonuniform List<scalar> 10(1942.67 1943.71 1944.69 1945.63 1946.52 1947.36 1948.15 1948.88 1949.55 1950.17);
    }
    movingWall2
    {
        type            MarshakRadiation;
        T               T;
        emissivity      1;
        value           nonuniform List<scalar> 10(4083.59 4084.1 4084.61 4085.11 4085.6 4086.09 4086.56 4087.04 4087.5 4087.97);
    }
    left2
    {
        type            MarshakRadiation;
        T               T;
        emissivity      1;
        value           nonuniform List<scalar> 10(4083.56 4083.55 4083.54 4083.52 4083.49 4083.46 4083.43 4083.41 4083.38 4083.35);
    }
    right2
    {
        type            MarshakRadiation;
        T               T;
        emissivity      1;
        value           nonuniform List<scalar> 10(4088.39 4088.34 4088.3 4088.27 4088.24 4088.22 4088.2 4088.19 4088.19 4088.19);
    }
    bottom2
    {
        type            MarshakRadiation;
        T               T;
        emissivity      1;
        value           nonuniform List<scalar> 10(4083.82 4084.33 4084.83 4085.32 4085.81 4086.3 4086.78 4087.25 4087.73 4088.19);
    }
    frontAndBack
    {
        type            empty;
    }
}


// ************************************************************************* //
