/*--------------------------------*- C++ -*----------------------------------*\
| =========                 |                                                 |
| \\      /  F ield         | OpenFOAM Extend Project: Open source CFD        |
|  \\    /   O peration     | Version:  1.6-ext                               |
|   \\  /    A nd           | Web:      www.extend-project.de                 |
|    \\/     M anipulation  |                                                 |
\*---------------------------------------------------------------------------*/
FoamFile
{
    version     2.0;
    format      ascii;
    class       volScalarField;
    location    "1000";
    object      kappaEff;
}
// * * * * * * * * * * * * * * * * * * * * * * * * * * * * * * * * * * * * * //

dimensions      [1 1 -3 -1 0 0 0];

internalField   nonuniform List<scalar> 
200
(
0.0436825
0.0436774
0.0432138
0.0426795
0.0423316
0.0421801
0.0421341
0.0417265
0.0406932
0.039332
0.045041
0.0545959
0.0572485
0.0595065
0.0617857
0.0636842
0.0634144
0.0556286
0.0451958
0.0396258
0.0461003
0.064018
0.0681026
0.0724637
0.0721229
0.0689974
0.0625088
0.0541453
0.0482951
0.0448259
0.0471016
0.0731085
0.0738652
0.0716352
0.0687007
0.0643322
0.0594103
0.0562758
0.0559275
0.0479694
0.0479215
0.0758063
0.0722922
0.0681134
0.0651576
0.0626121
0.0617788
0.0639281
0.0665123
0.0493929
0.0481958
0.0754439
0.0709502
0.0668256
0.064765
0.0641986
0.0661659
0.0706392
0.0723401
0.0502282
0.0481096
0.0731976
0.0702393
0.0674751
0.0664625
0.0667188
0.068919
0.0724287
0.0733982
0.0508747
0.0484218
0.0704754
0.0706318
0.0704393
0.0711067
0.0722855
0.0741542
0.0759804
0.0717935
0.0515516
0.0515256
0.0757283
0.0822296
0.0862807
0.0889729
0.0904194
0.0907782
0.083106
0.0682974
0.0523759
0.0493545
0.0510733
0.0525157
0.0538483
0.0550058
0.0557208
0.0556552
0.0547517
0.0537063
0.0523221
0.0495841
0.0516227
0.0528542
0.053878
0.0548397
0.0557877
0.0567669
0.057476
0.0571539
0.0537156
0.0522868
0.0703406
0.075041
0.0781894
0.0814355
0.0845716
0.0868201
0.0870715
0.0820929
0.0554085
0.0529425
0.0773671
0.0836088
0.0873384
0.0907298
0.0937549
0.0960337
0.0974467
0.0937841
0.0562912
0.0526432
0.0789541
0.0860601
0.0900219
0.0932751
0.0960801
0.0988294
0.102907
0.102165
0.0568793
0.0518714
0.0780784
0.0856781
0.0895444
0.0924045
0.095073
0.0985213
0.106399
0.107973
0.0573212
0.0510118
0.075934
0.0842203
0.0880575
0.0903957
0.0930881
0.0981124
0.107646
0.109606
0.0576848
0.0501966
0.0738555
0.0828274
0.0866746
0.0886913
0.0912153
0.0950756
0.103241
0.105258
0.0580585
0.049465
0.0745892
0.0843286
0.0879502
0.089366
0.0906453
0.0928341
0.0995806
0.096492
0.0582495
0.0488612
0.0763973
0.089993
0.0976798
0.104236
0.111398
0.119546
0.110395
0.0885346
0.0577769
0.0479658
0.0511426
0.0533234
0.0548469
0.0560591
0.0570216
0.0571201
0.0568427
0.0562872
0.0552467
)
;

boundaryField
{
    movingWall
    {
        type            zeroGradient;
    }
    left
    {
        type            zeroGradient;
    }
    right
    {
        type            chtRcThermalDiffusivityResistance;
        conductivity    uniform 5;
        remoteField     kappaEff;
        value           nonuniform List<scalar> 10(0.0107356 0.00886268 0.0054105 0.00456009 0.00472967 0.00493675 0.00511005 0.0052633 0.00541498 0.00538724);
    }
    bottom
    {
        type            zeroGradient;
    }
    movingWall2
    {
        type            zeroGradient;
    }
    left2
    {
        type            chtRcThermalDiffusivitySlave;
        remoteField     kappaEff;
        value           nonuniform List<scalar> 10(0.00787153 0.00814648 0.0086096 0.00860329 0.0083868 0.0081495 0.00791874 0.00768459 0.00744152 0.0072473);
    }
    right2
    {
        type            zeroGradient;
    }
    bottom2
    {
        type            zeroGradient;
    }
    frontAndBack
    {
        type            empty;
    }
}


// ************************************************************************* //
