/*--------------------------------*- C++ -*----------------------------------*\
| =========                 |                                                 |
| \\      /  F ield         | OpenFOAM Extend Project: Open source CFD        |
|  \\    /   O peration     | Version:  1.6-ext                               |
|   \\  /    A nd           | Web:      www.extend-project.de                 |
|    \\/     M anipulation  |                                                 |
\*---------------------------------------------------------------------------*/
FoamFile
{
    version     2.0;
    format      ascii;
    class       volScalarField;
    location    "1000";
    object      nut;
}
// * * * * * * * * * * * * * * * * * * * * * * * * * * * * * * * * * * * * * //

dimensions      [0 2 -1 0 0 0 0];

internalField   nonuniform List<scalar> 
200
(
9.63188e-06
9.62831e-06
9.29989e-06
8.92149e-06
8.67505e-06
8.56772e-06
8.5351e-06
8.24639e-06
7.5145e-06
6.5503e-06
1.05942e-05
1.73622e-05
1.92411e-05
2.08406e-05
2.2455e-05
2.37998e-05
2.36087e-05
1.80938e-05
1.07039e-05
6.7584e-06
1.13445e-05
2.40362e-05
2.69295e-05
3.00186e-05
2.97772e-05
2.75633e-05
2.29672e-05
1.70431e-05
1.28992e-05
1.04418e-05
1.20538e-05
3.04754e-05
3.10113e-05
2.94318e-05
2.73531e-05
2.42588e-05
2.07724e-05
1.85521e-05
1.83054e-05
1.26684e-05
1.26345e-05
3.23862e-05
2.98971e-05
2.69371e-05
2.48434e-05
2.30404e-05
2.24501e-05
2.39725e-05
2.5803e-05
1.36768e-05
1.28288e-05
3.21295e-05
2.89465e-05
2.6025e-05
2.45653e-05
2.41642e-05
2.55577e-05
2.87262e-05
2.9931e-05
1.42685e-05
1.27677e-05
3.05385e-05
2.8443e-05
2.6485e-05
2.57677e-05
2.59493e-05
2.75078e-05
2.99938e-05
3.06805e-05
1.47264e-05
1.29889e-05
2.86102e-05
2.8721e-05
2.85847e-05
2.90574e-05
2.98924e-05
3.1216e-05
3.25096e-05
2.95439e-05
1.52059e-05
1.51875e-05
3.2331e-05
3.69361e-05
3.98057e-05
4.17126e-05
4.27372e-05
4.29914e-05
3.75569e-05
2.70674e-05
1.57897e-05
1.36496e-05
1.48671e-05
1.58887e-05
1.68327e-05
1.76526e-05
1.8159e-05
1.81126e-05
1.74726e-05
1.67321e-05
1.57516e-05
1.38122e-05
1.52563e-05
1.61286e-05
1.68537e-05
1.75349e-05
1.82064e-05
1.89e-05
1.94023e-05
1.91742e-05
1.67387e-05
1.57266e-05
2.85147e-05
3.18442e-05
3.40743e-05
3.63736e-05
3.8595e-05
4.01877e-05
4.03658e-05
3.68393e-05
1.79378e-05
1.61911e-05
3.34918e-05
3.79131e-05
4.05548e-05
4.29571e-05
4.50999e-05
4.6714e-05
4.77149e-05
4.51205e-05
1.85631e-05
1.59791e-05
3.4616e-05
3.96494e-05
4.24557e-05
4.476e-05
4.67469e-05
4.86943e-05
5.15828e-05
5.10569e-05
1.89796e-05
1.54324e-05
3.39957e-05
3.93788e-05
4.21174e-05
4.41433e-05
4.60335e-05
4.84761e-05
5.40558e-05
5.51714e-05
1.92927e-05
1.48235e-05
3.24768e-05
3.83462e-05
4.10642e-05
4.27204e-05
4.46276e-05
4.81864e-05
5.49392e-05
5.63276e-05
1.95502e-05
1.4246e-05
3.10044e-05
3.73595e-05
4.00847e-05
4.15132e-05
4.33009e-05
4.60354e-05
5.18193e-05
5.32477e-05
1.98149e-05
1.37279e-05
3.15242e-05
3.84229e-05
4.09882e-05
4.1991e-05
4.28972e-05
4.44476e-05
4.92264e-05
4.70386e-05
1.99502e-05
1.33001e-05
3.28049e-05
4.24352e-05
4.788e-05
5.25238e-05
5.75973e-05
6.33685e-05
5.68863e-05
4.14022e-05
1.96155e-05
1.26659e-05
1.49161e-05
1.64609e-05
1.754e-05
1.83987e-05
1.90804e-05
1.91502e-05
1.89537e-05
1.85602e-05
1.78232e-05
)
;

boundaryField
{
    movingWall
    {
        type            nutWallFunction;
        Cmu             0.09;
        kappa           0.41;
        E               9.8;
        value           uniform 0;
    }
    left
    {
        type            nutWallFunction;
        Cmu             0.09;
        kappa           0.41;
        E               9.8;
        value           uniform 0;
    }
    right
    {
        type            nutWallFunction;
        Cmu             0.09;
        kappa           0.41;
        E               9.8;
        value           uniform 0;
    }
    bottom
    {
        type            nutWallFunction;
        Cmu             0.09;
        kappa           0.41;
        E               9.8;
        value           uniform 0;
    }
    movingWall2
    {
        type            nutWallFunction;
        Cmu             0.09;
        kappa           0.41;
        E               9.8;
        value           uniform 0;
    }
    left2
    {
        type            nutWallFunction;
        Cmu             0.09;
        kappa           0.41;
        E               9.8;
        value           uniform 0;
    }
    right2
    {
        type            nutWallFunction;
        Cmu             0.09;
        kappa           0.41;
        E               9.8;
        value           uniform 0;
    }
    bottom2
    {
        type            nutWallFunction;
        Cmu             0.09;
        kappa           0.41;
        E               9.8;
        value           uniform 0;
    }
    frontAndBack
    {
        type            empty;
    }
}


// ************************************************************************* //
