/*--------------------------------*- C++ -*----------------------------------*\
| =========                 |                                                 |
| \\      /  F ield         | OpenFOAM Extend Project: Open source CFD        |
|  \\    /   O peration     | Version:  1.6-ext                               |
|   \\  /    A nd           | Web:      www.extend-project.de                 |
|    \\/     M anipulation  |                                                 |
\*---------------------------------------------------------------------------*/
FoamFile
{
    version     2.0;
    format      ascii;
    class       volScalarField;
    location    "1000";
    object      p_rgh;
}
// * * * * * * * * * * * * * * * * * * * * * * * * * * * * * * * * * * * * * //

dimensions      [0 2 -2 0 0 0 0];

internalField   nonuniform List<scalar> 
200
(
1.08151e-11
-0.0010841
-0.0020516
-0.00252364
-0.00273341
-0.00282592
-0.00285868
-0.00289186
-0.00294047
-0.00309257
-0.000772486
-0.00214665
-0.00273413
-0.00294495
-0.0030019
-0.00298094
-0.00297174
-0.00314768
-0.00337947
-0.00361182
-0.00115671
-0.00327864
-0.00365049
-0.00365812
-0.00364494
-0.00382401
-0.00410586
-0.00440929
-0.00460298
-0.00490065
-0.00112245
-0.00411167
-0.00447482
-0.00462034
-0.0048134
-0.00525313
-0.00580107
-0.00622552
-0.00633887
-0.00599622
-0.000683083
-0.00452011
-0.00521808
-0.00554391
-0.00604898
-0.00680393
-0.00757819
-0.00801764
-0.00798551
-0.00716169
-9.25641e-05
-0.00492451
-0.00583304
-0.0063736
-0.00711277
-0.0081007
-0.00904317
-0.00944005
-0.00946604
-0.00823158
0.000248985
-0.00535964
-0.00641866
-0.00705308
-0.00788748
-0.00900479
-0.0101535
-0.0105527
-0.0106558
-0.00896512
0.000296802
-0.00568304
-0.00680072
-0.00740125
-0.00818163
-0.0092468
-0.0104655
-0.0106509
-0.0107843
-0.00848872
0.000193429
-0.00595991
-0.00703546
-0.00749601
-0.00813237
-0.00906809
-0.0101575
-0.0103948
-0.00995042
-0.00450645
-0.000255247
-0.00305399
-0.00491647
-0.00614846
-0.00712957
-0.00821537
-0.00935586
-0.00911315
-0.00682167
0.000986814
0.0092373
0.00733111
0.0055619
0.00390135
0.0028649
0.00278106
0.00411803
0.00749505
0.012607
0.0157801
0.00858569
0.00658499
0.00474277
0.0029084
0.00162075
0.00118804
0.00198796
0.00437676
0.0076277
0.0104782
0.00648994
0.00470692
0.00310251
0.00142047
0.000170836
-0.000363557
0.000107007
0.00193313
0.00387187
0.00655283
0.00447666
0.00284131
0.00140694
-0.000146628
-0.00136674
-0.00196023
-0.00182194
-0.000455724
0.000522703
0.00326864
0.00318573
0.00159438
0.000289191
-0.00110736
-0.00224524
-0.00282272
-0.00291362
-0.00187406
-0.00148327
0.00147676
0.00270805
0.00115581
-7.32871e-05
-0.00135675
-0.00243672
-0.00297318
-0.00310857
-0.00228871
-0.00215055
0.00127797
0.00282569
0.00138495
0.00020106
-0.00104218
-0.00210273
-0.00263372
-0.00277184
-0.00179358
-0.00149247
0.00307169
0.00351849
0.00240485
0.00127979
-2.51318e-05
-0.00117877
-0.00176867
-0.00188093
-0.000505161
0.000629203
0.00853511
0.00360503
0.00302117
0.00193291
0.000541867
-0.0007086
-0.00139012
-0.00156331
0.000395239
0.0044906
0.0213782
0.00576768
0.00856668
0.00647378
0.00395668
0.00203784
0.000952046
0.00158594
0.00617731
0.0143674
0.0358335
)
;

boundaryField
{
    movingWall
    {
        type            buoyantPressure;
        gradient        nonuniform List<scalar> 10(-4.31 -3.24088 -2.70924 -2.37554 -2.13695 -1.95139 -1.80707 -1.68731 -1.56901 -1.38191);
        rho             rhok;
        value           nonuniform List<scalar> 10(-0.0218053 -0.0192584 -0.0184627 -0.0180262 -0.0178143 -0.0179723 -0.0183912 -0.0175497 -0.0146667 -0.00592272);
    }
    left
    {
        type            buoyantPressure;
        gradient        nonuniform List<scalar> 10(0.147167 0.467024 0.877834 1.36689 1.91816 2.48249 3.06459 3.68595 4.18489 4.66583);
        rho             rhok;
        value           nonuniform List<scalar> 10(0.000735836 0.00156263 0.00323245 0.00571201 0.0089077 0.0123199 0.0155719 0.0187265 0.0211179 0.0230739);
    }
    right
    {
        type            buoyantPressure;
        gradient        nonuniform List<scalar> 10(-0.109214 -0.256402 -0.237801 -0.273698 -0.364567 -0.464785 -0.567738 -0.673273 -0.7831 -0.865312);
        rho             rhok;
        value           nonuniform List<scalar> 10(-0.00363864 -0.00489383 -0.00608965 -0.00736471 -0.00898452 -0.0105555 -0.0118038 -0.0118551 -0.00842195 -0.00333975);
    }
    bottom
    {
        type            buoyantPressure;
        gradient        uniform 0;
        rho             rhok;
        value           nonuniform List<scalar> 10(1.08151e-11 -0.0010841 -0.0020516 -0.00252364 -0.00273341 -0.00282592 -0.00285868 -0.00289186 -0.00294047 -0.00309257);
    }
    movingWall2
    {
        type            buoyantPressure;
        gradient        nonuniform List<scalar> 10(-0.206085 -0.0916894 -0.0369474 -0.00599788 0.0121471 0.0223712 0.0249205 0.0252778 0.0256044 0.0735446);
        rho             rhok;
        value           nonuniform List<scalar> 10(0.00473726 0.00810824 0.00628904 0.00392669 0.00209858 0.0010639 0.00171054 0.00630369 0.0144954 0.0362012);
    }
    left2
    {
        type            buoyantPressure;
        gradient        nonuniform List<scalar> 10(0.0800774 0.235682 0.378408 0.516372 0.646462 0.76726 0.87979 0.983002 1.07617 1.16408);
        rho             rhok;
        value           nonuniform List<scalar> 10(0.00963769 0.0097641 0.00838198 0.00705852 0.00641804 0.00654435 0.00722464 0.0084335 0.0089859 0.0115881);
    }
    right2
    {
        type            buoyantPressure;
        gradient        nonuniform List<scalar> 10(-0.0380603 -0.120729 -0.215381 -0.318055 -0.428192 -0.546197 -0.673254 -0.810357 -0.958522 -1.12406);
        rho             rhok;
        value           nonuniform List<scalar> 10(0.0155898 0.00987457 0.00547593 0.00167836 -0.000664197 -0.00145301 -0.000294582 0.00448332 0.0165856 0.0302132);
    }
    bottom2
    {
        type            buoyantPressure;
        gradient        uniform -0;
        rho             rhok;
        value           nonuniform List<scalar> 10(0.0092373 0.00733111 0.0055619 0.00390135 0.0028649 0.00278106 0.00411803 0.00749505 0.012607 0.0157801);
    }
    frontAndBack
    {
        type            empty;
    }
}


// ************************************************************************* //
