/*--------------------------------*- C++ -*----------------------------------*\
| =========                 |                                                 |
| \\      /  F ield         | OpenFOAM Extend Project: Open source CFD        |
|  \\    /   O peration     | Version:  1.6-ext                               |
|   \\  /    A nd           | Web:      www.extend-project.de                 |
|    \\/     M anipulation  |                                                 |
\*---------------------------------------------------------------------------*/
FoamFile
{
    version     2.0;
    format      ascii;
    class       volScalarField;
    location    "1000";
    object      p_rgh;
}
// * * * * * * * * * * * * * * * * * * * * * * * * * * * * * * * * * * * * * //

dimensions      [0 2 -2 0 0 0 0];

internalField   nonuniform List<scalar> 
200
(
1.08281e-11
-0.0010841
-0.0020516
-0.00252364
-0.00273341
-0.00282592
-0.00285868
-0.00289186
-0.00294047
-0.00309257
-0.000772486
-0.00214665
-0.00273413
-0.00294495
-0.0030019
-0.00298094
-0.00297174
-0.00314768
-0.00337947
-0.00361182
-0.00115671
-0.00327864
-0.00365049
-0.00365812
-0.00364494
-0.00382401
-0.00410586
-0.00440929
-0.00460298
-0.00490065
-0.00112245
-0.00411167
-0.00447482
-0.00462034
-0.0048134
-0.00525313
-0.00580107
-0.00622552
-0.00633887
-0.00599622
-0.000683083
-0.00452011
-0.00521808
-0.00554391
-0.00604898
-0.00680393
-0.00757819
-0.00801764
-0.00798551
-0.00716169
-9.25641e-05
-0.00492451
-0.00583304
-0.0063736
-0.00711277
-0.0081007
-0.00904317
-0.00944005
-0.00946604
-0.00823158
0.000248985
-0.00535964
-0.00641866
-0.00705308
-0.00788748
-0.00900479
-0.0101535
-0.0105527
-0.0106558
-0.00896512
0.000296802
-0.00568304
-0.00680072
-0.00740125
-0.00818163
-0.0092468
-0.0104655
-0.0106509
-0.0107843
-0.00848872
0.000193429
-0.00595991
-0.00703546
-0.00749601
-0.00813237
-0.00906809
-0.0101575
-0.0103948
-0.00995042
-0.00450645
-0.000255247
-0.00305399
-0.00491647
-0.00614846
-0.00712957
-0.00821537
-0.00935586
-0.00911315
-0.00682167
0.000986814
0.0092683
0.00736211
0.0055929
0.00393235
0.0028959
0.00281206
0.00414903
0.00752605
0.0126381
0.0158111
0.00861669
0.00661599
0.00477377
0.0029394
0.00165176
0.00121904
0.00201896
0.00440776
0.0076587
0.0105092
0.00652095
0.00473792
0.00313351
0.00145147
0.000201838
-0.000332555
0.00013801
0.00196414
0.00390287
0.00658383
0.00450766
0.00287231
0.00143794
-0.000115626
-0.00133574
-0.00192923
-0.00179094
-0.000424721
0.000553705
0.00329964
0.00321673
0.00162538
0.000320193
-0.00107636
-0.00221424
-0.00279172
-0.00288261
-0.00184306
-0.00145226
0.00150776
0.00273905
0.00118681
-4.22848e-05
-0.00132575
-0.00240572
-0.00294218
-0.00307757
-0.00225771
-0.00211955
0.00130897
0.0028567
0.00141595
0.000232062
-0.00101118
-0.00207173
-0.00260272
-0.00274083
-0.00176257
-0.00146147
0.00310269
0.00354949
0.00243585
0.00131079
5.87039e-06
-0.00114777
-0.00173767
-0.00184993
-0.000474159
0.000660205
0.00856611
0.00363603
0.00305218
0.00196391
0.000572869
-0.000677598
-0.00135912
-0.00153231
0.000426241
0.00452161
0.0214093
0.00579869
0.00859768
0.00650478
0.00398768
0.00206884
0.000983048
0.00161694
0.00620831
0.0143984
0.0358645
)
;

boundaryField
{
    movingWall
    {
        type            buoyantPressure;
        gradient        nonuniform List<scalar> 10(-4.31 -3.24088 -2.70924 -2.37554 -2.13695 -1.95139 -1.80707 -1.68731 -1.56901 -1.38191);
        rho             rhok;
        value           nonuniform List<scalar> 10(-0.0218053 -0.0192584 -0.0184627 -0.0180262 -0.0178143 -0.0179723 -0.0183912 -0.0175497 -0.0146667 -0.00592272);
    }
    left
    {
        type            buoyantPressure;
        gradient        nonuniform List<scalar> 10(0.147167 0.467024 0.877834 1.36689 1.91816 2.48249 3.06459 3.68595 4.18489 4.66583);
        rho             rhok;
        value           nonuniform List<scalar> 10(0.000735836 0.00156263 0.00323245 0.00571201 0.0089077 0.0123199 0.0155719 0.0187265 0.0211179 0.0230739);
    }
    right
    {
        type            buoyantPressure;
        gradient        nonuniform List<scalar> 10(-0.109214 -0.256402 -0.237801 -0.273698 -0.364567 -0.464785 -0.567738 -0.673273 -0.7831 -0.865312);
        rho             rhok;
        value           nonuniform List<scalar> 10(-0.00363864 -0.00489383 -0.00608965 -0.00736471 -0.00898452 -0.0105555 -0.0118038 -0.0118551 -0.00842195 -0.00333975);
    }
    bottom
    {
        type            buoyantPressure;
        gradient        uniform 0;
        rho             rhok;
        value           nonuniform List<scalar> 10(1.08281e-11 -0.0010841 -0.0020516 -0.00252364 -0.00273341 -0.00282592 -0.00285868 -0.00289186 -0.00294047 -0.00309257);
    }
    movingWall2
    {
        type            buoyantPressure;
        gradient        nonuniform List<scalar> 10(-0.206085 -0.0916894 -0.0369474 -0.00599791 0.012147 0.0223712 0.0249204 0.0252778 0.0256043 0.0735446);
        rho             rhok;
        value           nonuniform List<scalar> 10(0.00476826 0.00813924 0.00632005 0.00395769 0.00212958 0.0010949 0.00174154 0.0063347 0.0145264 0.0362322);
    }
    left2
    {
        type            buoyantPressure;
        gradient        nonuniform List<scalar> 10(0.0800774 0.235682 0.378408 0.516372 0.646462 0.76726 0.87979 0.983002 1.07617 1.16408);
        rho             rhok;
        value           nonuniform List<scalar> 10(0.00966869 0.0097951 0.00841299 0.00708953 0.00644904 0.00657535 0.00725564 0.0084645 0.0090169 0.0116191);
    }
    right2
    {
        type            buoyantPressure;
        gradient        nonuniform List<scalar> 10(-0.0380603 -0.120729 -0.215381 -0.318056 -0.428192 -0.546197 -0.673254 -0.810357 -0.958522 -1.12406);
        rho             rhok;
        value           nonuniform List<scalar> 10(0.0156208 0.00990557 0.00550693 0.00170937 -0.000633195 -0.00142201 -0.00026358 0.00451433 0.0166166 0.0302442);
    }
    bottom2
    {
        type            buoyantPressure;
        gradient        uniform -0;
        rho             rhok;
        value           nonuniform List<scalar> 10(0.0092683 0.00736211 0.0055929 0.00393235 0.0028959 0.00281206 0.00414903 0.00752605 0.0126381 0.0158111);
    }
    frontAndBack
    {
        type            empty;
    }
}


// ************************************************************************* //
