/*--------------------------------*- C++ -*----------------------------------*\
| =========                 |                                                 |
| \\      /  F ield         | OpenFOAM Extend Project: Open source CFD        |
|  \\    /   O peration     | Version:  1.6-ext                               |
|   \\  /    A nd           | Web:      www.extend-project.de                 |
|    \\/     M anipulation  |                                                 |
\*---------------------------------------------------------------------------*/
FoamFile
{
    version     2.0;
    format      ascii;
    class       volScalarField;
    location    "1000";
    object      epsilon;
}
// * * * * * * * * * * * * * * * * * * * * * * * * * * * * * * * * * * * * * //

dimensions      [0 2 -3 0 0 0 0];

internalField   nonuniform List<scalar> 
100
(
0.000114958
0.000117122
0.000107938
9.73155e-05
8.94062e-05
8.27458e-05
7.5971e-05
6.82378e-05
5.93637e-05
4.80154e-05
0.000144305
0.000135936
0.000117372
0.000124444
0.00013191
0.000129594
0.000115692
9.46599e-05
7.77667e-05
6.41684e-05
0.000168977
0.000150945
9.74859e-05
9.94514e-05
0.000112547
0.000112222
9.8786e-05
7.87312e-05
7.24896e-05
6.77165e-05
0.000193516
0.000166442
8.20111e-05
8.17684e-05
9.24831e-05
9.36521e-05
8.13188e-05
6.26463e-05
6.59109e-05
6.28321e-05
0.00021722
0.000161851
9.45267e-05
9.90588e-05
0.00010799
0.000103066
8.29764e-05
6.15234e-05
5.97192e-05
5.66521e-05
0.000240204
0.000172738
0.000128941
0.00013342
0.000128775
0.000111624
9.09023e-05
7.52775e-05
7.11345e-05
5.1937e-05
0.000270302
0.000211249
0.0001446
0.000130512
0.000129338
0.000133118
0.000144448
0.000165027
0.000176224
9.29292e-05
0.000316258
0.000278768
0.000264625
0.000299732
0.000336944
0.000359831
0.000374894
0.000403029
0.000352788
0.000227658
0.000503194
0.00055726
0.000768677
0.00109859
0.00144417
0.00164131
0.00157533
0.000922969
0.000467833
0.000295297
0.000309414
0.000408309
0.000494394
0.00060173
0.00071467
0.00078403
0.00072025
0.000613895
0.000497768
0.000372662
)
;

boundaryField
{
    movingWall
    {
        type            epsilonWallFunction;
        Cmu             0.09;
        kappa           0.41;
        E               9.8;
        value           nonuniform List<scalar> 10(0.000309414 0.000408309 0.000494394 0.00060173 0.00071467 0.00078403 0.00072025 0.000613895 0.000497768 0.000372662);
    }
    left
    {
        type            epsilonWallFunction;
        Cmu             0.09;
        kappa           0.41;
        E               9.8;
        value           nonuniform List<scalar> 10(0.000114958 0.000144305 0.000168977 0.000193516 0.00021722 0.000240204 0.000270302 0.000316258 0.000503194 0.000309414);
    }
    right
    {
        type            epsilonWallFunction;
        Cmu             0.09;
        kappa           0.41;
        E               9.8;
        value           nonuniform List<scalar> 10(4.80154e-05 6.41684e-05 6.77165e-05 6.28321e-05 5.66521e-05 5.1937e-05 9.29292e-05 0.000227658 0.000295297 0.000372662);
    }
    bottom
    {
        type            epsilonWallFunction;
        Cmu             0.09;
        kappa           0.41;
        E               9.8;
        value           nonuniform List<scalar> 10(0.000114958 0.000117122 0.000107938 9.73155e-05 8.94062e-05 8.27458e-05 7.5971e-05 6.82378e-05 5.93637e-05 4.80154e-05);
    }
    frontAndBack
    {
        type            empty;
    }
}


// ************************************************************************* //
