/*--------------------------------*- C++ -*----------------------------------*\
| =========                 |                                                 |
| \\      /  F ield         | OpenFOAM Extend Project: Open source CFD        |
|  \\    /   O peration     | Version:  1.6-ext                               |
|   \\  /    A nd           | Web:      www.extend-project.de                 |
|    \\/     M anipulation  |                                                 |
\*---------------------------------------------------------------------------*/
FoamFile
{
    version     2.0;
    format      ascii;
    class       volScalarField;
    location    "1000";
    object      G;
}
// * * * * * * * * * * * * * * * * * * * * * * * * * * * * * * * * * * * * * //

dimensions      [1 0 -3 0 0 0 0];

internalField   nonuniform List<scalar> 
100
(
4537.62
4542.74
4547.98
4553.32
4558.74
4564.23
4569.79
4575.41
4581.09
4586.83
4538.35
4543.42
4548.61
4553.9
4559.28
4564.73
4570.25
4575.83
4581.46
4587.11
4538.93
4543.97
4549.13
4554.39
4559.74
4565.17
4570.66
4576.21
4581.8
4587.42
4539.38
4544.41
4549.55
4554.8
4560.13
4565.53
4571.01
4576.54
4582.11
4587.73
4539.71
4544.74
4549.88
4555.11
4560.44
4565.83
4571.3
4576.82
4582.39
4588.01
4539.92
4544.96
4550.1
4555.34
4560.67
4566.07
4571.53
4577.06
4582.63
4588.25
4540.02
4545.07
4550.23
4555.49
4560.83
4566.24
4571.71
4577.24
4582.82
4588.44
4539.99
4545.06
4550.26
4555.55
4560.92
4566.35
4571.84
4577.38
4582.97
4588.59
4539.8
4544.93
4550.19
4555.53
4560.94
4566.4
4571.91
4577.47
4583.07
4588.71
4539.4
4544.67
4550.04
4555.46
4560.92
4566.41
4571.94
4577.51
4583.13
4588.83
)
;

boundaryField
{
    movingWall
    {
        type            MarshakRadiation;
        T               T;
        emissivity      1;
        value           nonuniform List<scalar> 10(4539.02 4544.48 4549.94 4555.4 4560.89 4566.39 4571.93 4577.5 4583.13 4588.91);
    }
    left
    {
        type            MarshakRadiation;
        T               T;
        emissivity      1;
        value           nonuniform List<scalar> 10(4535.17 4535.9 4536.47 4536.92 4537.25 4537.46 4537.56 4537.53 4537.34 4536.94);
    }
    right
    {
        type            MarshakRadiation;
        T               T;
        emissivity      1;
        value           nonuniform List<scalar> 10(4589.64 4589.92 4590.24 4590.55 4590.83 4591.08 4591.28 4591.43 4591.54 4591.65);
    }
    bottom
    {
        type            MarshakRadiation;
        T               T;
        emissivity      1;
        value           nonuniform List<scalar> 10(4537.16 4542.35 4547.63 4552.99 4558.43 4563.94 4569.52 4575.17 4580.87 4586.74);
    }
    frontAndBack
    {
        type            empty;
    }
}


// ************************************************************************* //
