/*--------------------------------*- C++ -*----------------------------------*\
| =========                 |                                                 |
| \\      /  F ield         | OpenFOAM Extend Project: Open source CFD        |
|  \\    /   O peration     | Version:  1.6-ext                               |
|   \\  /    A nd           | Web:      www.extend-project.de                 |
|    \\/     M anipulation  |                                                 |
\*---------------------------------------------------------------------------*/
FoamFile
{
    version     2.0;
    format      ascii;
    class       volScalarField;
    location    "1000";
    object      nut;
}
// * * * * * * * * * * * * * * * * * * * * * * * * * * * * * * * * * * * * * //

dimensions      [0 2 -1 0 0 0 0];

internalField   nonuniform List<scalar> 
100
(
1.26625e-05
1.27414e-05
1.23993e-05
1.19784e-05
1.16447e-05
1.1348e-05
1.10295e-05
1.06418e-05
1.01589e-05
9.46525e-06
1.36594e-05
2.29225e-05
2.54822e-05
2.86679e-05
3.07824e-05
3.10933e-05
2.93237e-05
2.567e-05
2.08199e-05
1.04259e-05
1.43973e-05
3.23009e-05
3.48153e-05
4.07088e-05
4.32729e-05
4.22596e-05
3.8068e-05
3.14971e-05
2.4965e-05
1.06146e-05
1.5063e-05
4.02263e-05
4.1694e-05
4.69982e-05
4.92716e-05
4.7274e-05
4.11173e-05
3.24097e-05
2.55054e-05
1.0353e-05
1.56545e-05
3.98832e-05
4.19626e-05
4.56208e-05
4.66457e-05
4.31485e-05
3.61382e-05
2.76814e-05
2.11063e-05
1.00018e-05
1.61882e-05
3.79609e-05
3.90005e-05
3.78148e-05
3.46531e-05
2.99724e-05
2.47084e-05
2.00508e-05
1.6558e-05
9.71622e-06
1.68379e-05
3.43474e-05
2.93239e-05
2.56736e-05
2.28562e-05
2.05376e-05
1.89483e-05
1.80807e-05
1.68269e-05
1.17957e-05
1.77427e-05
3.5096e-05
3.25259e-05
3.13717e-05
3.08065e-05
2.99586e-05
2.86881e-05
2.70403e-05
2.27579e-05
1.59013e-05
2.07134e-05
4.16959e-05
4.63013e-05
5.19516e-05
5.74064e-05
6.05225e-05
5.8684e-05
4.05199e-05
2.50694e-05
1.73417e-05
1.76138e-05
1.93197e-05
2.05919e-05
2.19856e-05
2.32831e-05
2.40132e-05
2.33435e-05
2.21328e-05
2.06386e-05
1.87403e-05
)
;

boundaryField
{
    movingWall
    {
        type            nutWallFunction;
        Cmu             0.09;
        kappa           0.41;
        E               9.8;
        value           uniform 0;
    }
    left
    {
        type            nutWallFunction;
        Cmu             0.09;
        kappa           0.41;
        E               9.8;
        value           uniform 0;
    }
    right
    {
        type            calculated;
        value           nonuniform List<scalar> 10(9.46525e-06 1.04259e-05 1.06146e-05 1.0353e-05 1.00018e-05 9.71622e-06 1.17957e-05 1.59013e-05 1.73417e-05 1.87403e-05);
    }
    bottom
    {
        type            nutWallFunction;
        Cmu             0.09;
        kappa           0.41;
        E               9.8;
        value           uniform 0;
    }
    frontAndBack
    {
        type            empty;
    }
}


// ************************************************************************* //
