/*--------------------------------*- C++ -*----------------------------------*\
| =========                 |                                                 |
| \\      /  F ield         | OpenFOAM Extend Project: Open source CFD        |
|  \\    /   O peration     | Version:  1.6-ext                               |
|   \\  /    A nd           | Web:      www.extend-project.de                 |
|    \\/     M anipulation  |                                                 |
\*---------------------------------------------------------------------------*/
FoamFile
{
    version     2.0;
    format      ascii;
    class       volScalarField;
    location    "1000";
    object      nut;
}
// * * * * * * * * * * * * * * * * * * * * * * * * * * * * * * * * * * * * * //

dimensions      [0 2 -1 0 0 0 0];

internalField   nonuniform List<scalar> 
100
(
1.26313e-05
1.2752e-05
1.24512e-05
1.20652e-05
1.17353e-05
1.14451e-05
1.11365e-05
1.07606e-05
1.02756e-05
9.5583e-06
1.36268e-05
2.32715e-05
2.63326e-05
2.97669e-05
3.19557e-05
3.22553e-05
3.04269e-05
2.6655e-05
2.13269e-05
1.05504e-05
1.43635e-05
3.24725e-05
3.64333e-05
4.30314e-05
4.60111e-05
4.48875e-05
4.03411e-05
3.30921e-05
2.4974e-05
1.06413e-05
1.50397e-05
3.99835e-05
4.3256e-05
4.93653e-05
5.23407e-05
4.97599e-05
4.29209e-05
3.30111e-05
2.34226e-05
1.02504e-05
1.56501e-05
4.01245e-05
4.31292e-05
4.70929e-05
4.76742e-05
4.36551e-05
3.60514e-05
2.68535e-05
1.8605e-05
9.85893e-06
1.61753e-05
3.86864e-05
3.79612e-05
3.50873e-05
3.16742e-05
2.73593e-05
2.25127e-05
1.82001e-05
1.48645e-05
9.74912e-06
1.66655e-05
3.51393e-05
2.97813e-05
2.59847e-05
2.34508e-05
2.15074e-05
2.03546e-05
2.02708e-05
2.05354e-05
1.51595e-05
1.72299e-05
3.52614e-05
3.29071e-05
3.19013e-05
3.16276e-05
3.12007e-05
3.04516e-05
2.97617e-05
2.57777e-05
1.68115e-05
2.01003e-05
4.09733e-05
4.5358e-05
5.03405e-05
5.49497e-05
5.78112e-05
5.78131e-05
4.77513e-05
2.77586e-05
1.79129e-05
1.72015e-05
1.876e-05
1.99157e-05
2.11658e-05
2.23715e-05
2.32347e-05
2.31111e-05
2.20785e-05
2.07417e-05
1.91052e-05
)
;

boundaryField
{
    movingWall
    {
        type            nutWallFunction;
        Cmu             0.09;
        kappa           0.41;
        E               9.8;
        value           uniform 0;
    }
    left
    {
        type            nutWallFunction;
        Cmu             0.09;
        kappa           0.41;
        E               9.8;
        value           uniform 0;
    }
    right
    {
        type            nutWallFunction;
        Cmu             0.09;
        kappa           0.41;
        E               9.8;
        value           uniform 0;
    }
    bottom
    {
        type            nutWallFunction;
        Cmu             0.09;
        kappa           0.41;
        E               9.8;
        value           uniform 0;
    }
    frontAndBack
    {
        type            empty;
    }
}


// ************************************************************************* //
