/*--------------------------------*- C++ -*----------------------------------*\
| =========                 |                                                 |
| \\      /  F ield         | OpenFOAM Extend Project: Open source CFD        |
|  \\    /   O peration     | Version:  1.6-ext                               |
|   \\  /    A nd           | Web:      www.extend-project.de                 |
|    \\/     M anipulation  |                                                 |
\*---------------------------------------------------------------------------*/
FoamFile
{
    version     2.0;
    format      ascii;
    class       volScalarField;
    location    "1000";
    object      p_rgh;
}
// * * * * * * * * * * * * * * * * * * * * * * * * * * * * * * * * * * * * * //

dimensions      [0 2 -2 0 0 0 0];

internalField   nonuniform List<scalar> 
100
(
8.23269e-16
-0.00296349
-0.00536468
-0.00640981
-0.00684584
-0.00708343
-0.00719964
-0.0071883
-0.00712734
-0.00724425
-0.00240991
-0.00601471
-0.00722115
-0.00753268
-0.00753397
-0.00745835
-0.0073741
-0.00726822
-0.00737483
-0.00892804
-0.00363396
-0.00901002
-0.00956945
-0.00930484
-0.00877336
-0.00832281
-0.00799185
-0.00777781
-0.00817618
-0.0119678
-0.00413366
-0.0116979
-0.0117496
-0.0110768
-0.010319
-0.00965003
-0.00910978
-0.00875338
-0.00935858
-0.0152267
-0.00410563
-0.0134237
-0.0136332
-0.0130071
-0.0123641
-0.0118943
-0.0115367
-0.0114459
-0.0124363
-0.0180116
-0.00358289
-0.0153332
-0.0160927
-0.0162586
-0.0164302
-0.0166068
-0.0168051
-0.0169083
-0.0172367
-0.02021
-0.00281969
-0.0181122
-0.0204424
-0.021418
-0.0223999
-0.0233986
-0.0241559
-0.0242086
-0.0236185
-0.0246401
-0.00141351
-0.0187362
-0.0214514
-0.0226262
-0.0235489
-0.0243061
-0.0246196
-0.0237606
-0.0229815
-0.0251201
0.00222441
-0.016842
-0.0201523
-0.0213742
-0.0221419
-0.0225212
-0.0219274
-0.0194399
-0.0175272
-0.0205515
0.0119663
-0.00193802
-0.00819903
-0.0118792
-0.0143549
-0.0162355
-0.0167617
-0.0149623
-0.0115319
-0.0109277
)
;

boundaryField
{
    movingWall
    {
        type            buoyantPressure;
        gradient        nonuniform List<scalar> 10(-4.47555 -2.0867 -1.11632 -0.607789 -0.310659 -0.145299 -0.0992462 -0.0836462 -0.0262786 0.950326);
        rho             rhok;
        value           nonuniform List<scalar> 10(-0.0104115 -0.0123715 -0.0137806 -0.0149181 -0.0159082 -0.016962 -0.0172579 -0.0153805 -0.0116633 -0.00617606);
    }
    left
    {
        type            buoyantPressure;
        gradient        nonuniform List<scalar> 10(0.558648 1.7637 3.20282 4.83345 6.64996 8.58477 10.6352 12.38 13.3741 12.9475);
        rho             rhok;
        value           nonuniform List<scalar> 10(0.00279324 0.00640858 0.0123801 0.0200336 0.0291441 0.0393409 0.0503561 0.0604867 0.0690948 0.0767037);
    }
    right
    {
        type            buoyantPressure;
        gradient        nonuniform List<scalar> 10(-0.681979 -1.99783 -3.19479 -4.18286 -4.98072 -5.50432 -5.38063 -6.20238 -7.9594 -10.0356);
        rho             rhok;
        value           nonuniform List<scalar> 10(-0.0106541 -0.0189172 -0.0279418 -0.036141 -0.0429152 -0.0477317 -0.0515432 -0.056132 -0.0603485 -0.0611058);
    }
    bottom
    {
        type            buoyantPressure;
        gradient        uniform 0;
        rho             rhok;
        value           nonuniform List<scalar> 10(8.23269e-16 -0.00296349 -0.00536468 -0.00640981 -0.00684584 -0.00708343 -0.00719964 -0.0071883 -0.00712734 -0.00724425);
    }
    frontAndBack
    {
        type            empty;
    }
}


// ************************************************************************* //
