/*--------------------------------*- C++ -*----------------------------------*\
| =========                 |                                                 |
| \\      /  F ield         | OpenFOAM Extend Project: Open source CFD        |
|  \\    /   O peration     | Version:  1.6-ext                               |
|   \\  /    A nd           | Web:      www.extend-project.de                 |
|    \\/     M anipulation  |                                                 |
\*---------------------------------------------------------------------------*/
FoamFile
{
    version     2.0;
    format      ascii;
    class       surfaceScalarField;
    location    "1000";
    object      phi;
}
// * * * * * * * * * * * * * * * * * * * * * * * * * * * * * * * * * * * * * //

dimensions      [0 3 -1 0 0 0 0];

internalField   nonuniform List<scalar> 
180
(
5.19006e-06
-5.19006e-06
7.06643e-06
-1.87637e-06
7.69478e-06
-6.28358e-07
7.71342e-06
-1.86327e-08
7.41032e-06
3.03093e-07
6.92419e-06
4.86129e-07
6.27119e-06
6.53006e-07
5.35938e-06
9.11813e-07
3.78171e-06
1.57767e-06
3.78171e-06
2.83505e-06
-8.02511e-06
3.91369e-06
-2.95501e-06
4.18401e-06
-8.98682e-07
4.18375e-06
-1.83674e-08
4.1211e-06
3.65741e-07
4.01569e-06
5.91537e-07
3.80427e-06
8.64427e-07
3.33926e-06
1.37683e-06
2.27063e-06
2.6463e-06
6.05233e-06
1.04098e-06
-9.06609e-06
1.14857e-06
-3.0626e-06
1.08124e-06
-8.31351e-07
1.17071e-06
-1.07841e-07
1.40794e-06
1.28516e-07
1.64953e-06
3.49939e-07
1.82356e-06
6.90405e-07
1.81397e-06
1.38642e-06
1.33956e-06
3.1207e-06
7.39189e-06
-2.67641e-07
-8.79845e-06
-5.57028e-07
-2.77321e-06
-5.52627e-07
-8.35752e-07
-3.70477e-07
-2.89991e-07
-1.52812e-07
-8.91493e-08
5.59696e-08
1.41157e-07
2.38756e-07
5.07618e-07
3.33933e-07
1.29124e-06
2.43391e-07
3.21125e-06
7.63528e-06
-1.09054e-06
-7.70791e-06
-1.5043e-06
-2.35944e-06
-1.56133e-06
-7.78723e-07
-1.60998e-06
-2.41348e-07
-1.74465e-06
4.55228e-08
-1.88817e-06
2.84679e-07
-1.95121e-06
5.70655e-07
-1.82711e-06
1.16714e-06
-1.28883e-06
2.67297e-06
6.34645e-06
-1.77321e-06
-5.9347e-06
-2.79584e-06
-1.33681e-06
-3.54063e-06
-3.39295e-08
-4.2113e-06
4.29315e-07
-4.78813e-06
6.22359e-07
-5.19498e-06
6.9153e-07
-5.29144e-06
6.67115e-07
-4.78413e-06
6.59833e-07
-3.25318e-06
1.14201e-06
3.09328e-06
-2.7606e-06
-3.1741e-06
-4.7231e-06
6.2569e-07
-6.0446e-06
1.28757e-06
-7.00099e-06
1.3857e-06
-7.74448e-06
1.36585e-06
-8.20777e-06
1.15483e-06
-8.16127e-06
6.20605e-07
-7.19184e-06
-3.09597e-07
-4.88294e-06
-1.16688e-06
-1.78967e-06
-2.97948e-06
-1.94618e-07
-4.4127e-06
2.05891e-06
-5.30337e-06
2.17824e-06
-5.97556e-06
2.05789e-06
-6.50718e-06
1.89747e-06
-6.84706e-06
1.4947e-06
-6.72671e-06
5.00261e-07
-5.75316e-06
-1.28315e-06
-3.65273e-06
-3.26732e-06
-5.44239e-06
-2.91629e-06
2.72167e-06
-2.95505e-06
2.09768e-06
-2.60703e-06
1.83022e-06
-2.21556e-06
1.66641e-06
-1.83098e-06
1.5129e-06
-1.54778e-06
1.21151e-06
-1.23321e-06
1.85692e-07
-9.71088e-07
-1.54527e-06
-7.09807e-07
-3.5286e-06
-6.1522e-06
2.72167e-06
4.81935e-06
6.64957e-06
8.31598e-06
9.82887e-06
1.10404e-05
1.12261e-05
9.6808e-06
6.1522e-06
)
;

boundaryField
{
    movingWall
    {
        type            calculated;
        value           nonuniform List<scalar> 10(0 -1.69407e-21 0 4.23516e-22 0 0 2.64698e-23 2.64698e-23 1.32349e-23 0);
    }
    left
    {
        type            calculated;
        value           nonuniform List<scalar> 10(4.23516e-22 -8.47033e-22 0 -1.69407e-21 3.38813e-21 -3.38813e-21 0 1.35525e-20 1.35525e-20 0);
    }
    right
    {
        type            calculated;
        value           nonuniform List<scalar> 10(8.47033e-22 0 0 -1.69407e-21 0 -6.77626e-21 3.38813e-21 3.38813e-21 0 0);
    }
    bottom
    {
        type            calculated;
        value           uniform 0;
    }
    frontAndBack
    {
        type            empty;
    }
}


// ************************************************************************* //
