/*--------------------------------*- C++ -*----------------------------------*\
| =========                 |                                                 |
| \\      /  F ield         | OpenFOAM Extend Project: Open source CFD        |
|  \\    /   O peration     | Version:  1.6-ext                               |
|   \\  /    A nd           | Web:      www.extend-project.de                 |
|    \\/     M anipulation  |                                                 |
\*---------------------------------------------------------------------------*/
FoamFile
{
    version     2.0;
    format      ascii;
    class       surfaceScalarField;
    location    "1000";
    object      phi;
}
// * * * * * * * * * * * * * * * * * * * * * * * * * * * * * * * * * * * * * //

dimensions      [0 3 -1 0 0 0 0];

internalField   nonuniform List<scalar> 
180
(
5.1587e-06
-5.1587e-06
7.11027e-06
-1.95157e-06
7.82161e-06
-7.11336e-07
7.90328e-06
-8.16688e-08
7.62911e-06
2.74164e-07
7.12924e-06
4.99875e-07
6.41708e-06
7.12158e-07
5.40376e-06
1.01332e-06
3.71414e-06
1.68962e-06
3.71414e-06
2.80881e-06
-7.96752e-06
3.97076e-06
-3.11352e-06
4.33939e-06
-1.07997e-06
4.40977e-06
-1.52046e-07
4.36718e-06
3.16749e-07
4.22321e-06
6.43846e-07
3.92556e-06
1.00981e-06
3.35084e-06
1.58804e-06
2.21503e-06
2.82543e-06
5.92917e-06
1.00553e-06
-8.97305e-06
1.22411e-06
-3.33209e-06
1.27655e-06
-1.13241e-06
1.41323e-06
-2.88724e-07
1.61512e-06
1.14859e-07
1.76169e-06
4.9727e-07
1.79912e-06
9.72385e-07
1.64606e-06
1.7411e-06
1.13498e-06
3.33651e-06
7.06415e-06
-3.16087e-07
-8.65696e-06
-5.71136e-07
-3.07704e-06
-5.40998e-07
-1.16255e-06
-3.84206e-07
-4.45515e-07
-2.71431e-07
2.08394e-09
-2.36334e-07
4.62172e-07
-2.46529e-07
9.82581e-07
-2.74813e-07
1.76939e-06
-2.36059e-07
3.29775e-06
6.82809e-06
-1.18143e-06
-7.47553e-06
-1.73418e-06
-2.52429e-06
-1.9441e-06
-9.52631e-07
-2.16478e-06
-2.24834e-07
-2.4686e-06
3.05898e-07
-2.76903e-06
7.62604e-07
-2.9767e-06
1.19025e-06
-2.88658e-06
1.67927e-06
-2.08852e-06
2.49969e-06
4.73957e-06
-1.92824e-06
-5.54729e-06
-3.25742e-06
-1.19511e-06
-4.29412e-06
8.40649e-08
-5.16693e-06
6.47979e-07
-5.89087e-06
1.02984e-06
-6.4469e-06
1.31863e-06
-6.68715e-06
1.4305e-06
-6.26119e-06
1.25332e-06
-4.62222e-06
8.60718e-07
1.17353e-07
-2.68491e-06
-2.86238e-06
-4.63061e-06
7.50595e-07
-5.94684e-06
1.40029e-06
-6.89043e-06
1.59156e-06
-7.62409e-06
1.7635e-06
-8.11757e-06
1.81211e-06
-8.17329e-06
1.48623e-06
-7.2765e-06
3.56527e-07
-4.95777e-06
-1.45802e-06
-4.84042e-06
-2.80668e-06
-5.57058e-08
-4.09414e-06
2.03806e-06
-4.83476e-06
2.14092e-06
-5.30895e-06
2.06575e-06
-5.59836e-06
2.05291e-06
-5.72265e-06
1.9364e-06
-5.61916e-06
1.38274e-06
-4.69303e-06
-5.696e-07
-2.71556e-06
-3.43549e-06
-7.55598e-06
-2.86592e-06
2.81022e-06
-2.89438e-06
2.06651e-06
-2.51997e-06
1.7665e-06
-2.04859e-06
1.59437e-06
-1.48029e-06
1.48462e-06
-8.85283e-07
1.34139e-06
-1.79657e-07
6.7711e-07
2.47316e-07
-9.96573e-07
5.32383e-08
-3.24141e-06
-7.50274e-06
2.81022e-06
4.87673e-06
6.64323e-06
8.23761e-06
9.72223e-06
1.10636e-05
1.17407e-05
1.07442e-05
7.50274e-06
)
;

boundaryField
{
    movingWall
    {
        type            calculated;
        value           nonuniform List<scalar> 10(-6.77626e-21 -1.69407e-21 -1.69407e-21 0 -4.23516e-22 0 0 2.11758e-22 4.23516e-22 0);
    }
    left
    {
        type            calculated;
        value           nonuniform List<scalar> 10(8.47033e-22 0 0 -1.69407e-21 0 -3.38813e-21 -6.77626e-21 1.35525e-20 0 0);
    }
    right
    {
        type            calculated;
        value           nonuniform List<scalar> 10(-8.47033e-22 1.69407e-21 0 0 -3.38813e-21 0 0 6.77626e-21 0 0);
    }
    bottom
    {
        type            calculated;
        value           uniform 0;
    }
    frontAndBack
    {
        type            empty;
    }
}


// ************************************************************************* //
