/*--------------------------------*- C++ -*----------------------------------*\
| =========                 |                                                 |
| \\      /  F ield         | OpenFOAM Extend Project: Open source CFD        |
|  \\    /   O peration     | Version:  1.6-ext                               |
|   \\  /    A nd           | Web:      www.extend-project.de                 |
|    \\/     M anipulation  |                                                 |
\*---------------------------------------------------------------------------*/
FoamFile
{
    version     2.0;
    format      ascii;
    class       volScalarField;
    location    "1000";
    object      T;
}
// * * * * * * * * * * * * * * * * * * * * * * * * * * * * * * * * * * * * * //

dimensions      [0 0 0 1 0 0 0];

internalField   nonuniform List<scalar> 
100
(
326.111
333.338
337.22
340.025
342.48
344.75
346.919
349.107
351.943
363.085
328.223
339.434
342.567
343.594
344.2
344.827
345.631
346.882
349.763
363.581
333.115
349.687
352.042
351.355
349.834
348.673
348.041
348.22
350.715
365.82
337.773
357.113
357.87
356.044
353.894
352.23
351.186
351.191
354.119
369.762
342.191
361.099
361.615
359.939
358.512
357.608
357.55
358.763
362.494
373.944
345.829
364.973
366.251
366.322
366.426
366.998
368.3
370.421
373.721
379.824
348.823
369.593
372.278
373.093
374.179
375.685
377.608
379.847
382.296
386.422
349.361
370.449
373.568
374.649
375.518
376.29
376.801
376.871
377.33
382.398
346.508
367.888
371.787
373.176
374.041
374.579
374.514
372.906
372.672
378.93
337.931
354.242
361.148
364.956
367.392
369.039
369.985
370.469
371.056
375.382
)
;

boundaryField
{
    movingWall
    {
        type            adiabatic;
        K               kappaEff;
        value           nonuniform List<scalar> 10(363.492 368.734 370.999 372.273 373.119 373.73 374.139 374.416 374.733 376.257);
    }
    left
    {
        type            fixedValue;
        value           uniform 273;
    }
    right
    {
        type            chtRcTemperature;
        K               kappaEff;
        radiation       1;
        remoteField     T;
        value           nonuniform List<scalar> 10(439.041 439.059 439.098 439.156 439.222 439.293 439.352 439.353 439.339 439.322);
    }
    bottom
    {
        type            adiabatic;
        K               kappaEff;
        value           nonuniform List<scalar> 10(360.887 363.164 364.509 365.528 366.416 367.23 368.008 368.793 369.766 373.012);
    }
    frontAndBack
    {
        type            empty;
    }
}


// ************************************************************************* //
