/*--------------------------------*- C++ -*----------------------------------*\
| =========                 |                                                 |
| \\      /  F ield         | OpenFOAM Extend Project: Open source CFD        |
|  \\    /   O peration     | Version:  1.6-ext                               |
|   \\  /    A nd           | Web:      www.extend-project.de                 |
|    \\/     M anipulation  |                                                 |
\*---------------------------------------------------------------------------*/
FoamFile
{
    version     2.0;
    format      ascii;
    class       volScalarField;
    location    "1000";
    object      T;
}
// * * * * * * * * * * * * * * * * * * * * * * * * * * * * * * * * * * * * * //

dimensions      [0 0 0 1 0 0 0];

internalField   nonuniform List<scalar> 
100
(
329.947
337.095
340.814
343.469
345.826
348.006
350.077
352.148
354.958
368.363
332.929
344.101
346.945
347.749
348.279
348.822
349.506
350.58
353.425
370.016
338.297
355.029
356.984
356.016
354.358
353.168
352.433
352.376
354.766
372.824
343.387
363.382
363.678
361.691
359.535
357.665
356.224
355.554
357.812
377.132
348.319
368.186
368.456
366.643
364.887
363.604
362.746
362.914
366.087
381.728
352.555
372.858
373.748
373.531
373.398
373.477
374.024
375.239
378.116
387.224
356.393
378.698
381.6
382.514
383.71
385.212
386.941
388.838
391.202
396.101
357.132
379.806
383.055
384.168
385.021
385.726
386.254
386.704
388.717
396.1
353.195
376.546
380.64
381.921
382.474
382.376
381.327
379.706
380.662
390.432
342.465
360.445
367.844
371.789
374.166
375.557
376.034
376.276
376.834
384.227
)
;

boundaryField
{
    movingWall
    {
        type            adiabatic;
        K               kappaEff;
        value           nonuniform List<scalar> 10(365.276 371.08 373.533 374.887 375.749 376.297 376.54 376.702 376.968 379.383);
    }
    left
    {
        type            fixedValue;
        value           uniform 273;
    }
    right
    {
        type            chtRcTemperature;
        K               kappaEff;
        radiation       1;
        remoteField     T;
        value           nonuniform List<scalar> 10(437.882 437.901 437.957 438.045 438.142 438.233 438.293 438.25 438.159 438.069);
    }
    bottom
    {
        type            adiabatic;
        K               kappaEff;
        value           nonuniform List<scalar> 10(362.442 364.689 365.975 366.941 367.786 368.561 369.299 370.038 370.985 374.791);
    }
    frontAndBack
    {
        type            empty;
    }
}


// ************************************************************************* //
