/*--------------------------------*- C++ -*----------------------------------*\
| =========                 |                                                 |
| \\      /  F ield         | OpenFOAM Extend Project: Open source CFD        |
|  \\    /   O peration     | Version:  1.6-ext                               |
|   \\  /    A nd           | Web:      www.extend-project.de                 |
|    \\/     M anipulation  |                                                 |
\*---------------------------------------------------------------------------*/
FoamFile
{
    version     2.0;
    format      ascii;
    class       volVectorField;
    location    "1000";
    object      U;
}
// * * * * * * * * * * * * * * * * * * * * * * * * * * * * * * * * * * * * * //

dimensions      [0 1 -1 0 0 0 0];

internalField   nonuniform List<vector> 
100
(
(0.033613 -0.04219 0)
(0.0634693 -0.0198315 0)
(0.076396 -0.00985278 0)
(0.0786819 -0.00467691 0)
(0.0762575 -0.00138151 0)
(0.0720644 0.000845072 0)
(0.0663863 0.00262573 0)
(0.0590992 0.00456269 0)
(0.0474828 0.00867161 0)
(0.030476 0.0235988 0)
(0.0138 -0.0696012 0)
(0.0373788 -0.0249976 0)
(0.0419118 -0.00681462 0)
(0.0424637 0.00176371 0)
(0.0416972 0.00576032 0)
(0.0408425 0.00771933 0)
(0.0393565 0.00958333 0)
(0.0367988 0.0130306 0)
(0.0287485 0.0223071 0)
(0.0197882 0.0496084 0)
(0.00130441 -0.0894582 0)
(0.0147242 -0.0325759 0)
(0.0108227 -0.00976437 0)
(0.0107757 -0.00096415 0)
(0.0129289 0.00240138 0)
(0.0153875 0.0047364 0)
(0.0174174 0.00800506 0)
(0.0192471 0.0143435 0)
(0.015894 0.0296711 0)
(0.0130755 0.0686654 0)
(-0.00632744 -0.0915649 0)
(-0.00206644 -0.028191 0)
(-0.00678967 -0.00704727 0)
(-0.00462895 -0.0015217 0)
(-0.00269864 -0.000121371 0)
(-0.000409637 0.00182062 0)
(0.00122757 0.00527114 0)
(0.00376691 0.0127492 0)
(0.00134656 0.0320281 0)
(0.00652553 0.0783531 0)
(-0.0111517 -0.083958 0)
(-0.0125939 -0.0267632 0)
(-0.0160891 -0.00932404 0)
(-0.0155515 -0.0041371 0)
(-0.0166287 -0.00146763 0)
(-0.0183943 0.00132213 0)
(-0.0197211 0.00511713 0)
(-0.0194415 0.0128734 0)
(-0.0186391 0.0312178 0)
(-0.00265584 0.0735707 0)
(-0.0153048 -0.0699604 0)
(-0.022697 -0.0205356 0)
(-0.0319723 -0.00614329 0)
(-0.0389407 -0.000294939 0)
(-0.0454307 0.00258756 0)
(-0.0505618 0.00455068 0)
(-0.0537715 0.00674523 0)
(-0.0524988 0.0114077 0)
(-0.0433145 0.0241008 0)
(-0.0165281 0.0552258 0)
(-0.0207318 -0.0458022 0)
(-0.0379635 -0.00437439 0)
(-0.0553406 0.00634714 0)
(-0.0656719 0.0092066 0)
(-0.0743303 0.0103597 0)
(-0.0808446 0.0102044 0)
(-0.0839347 0.00829155 0)
(-0.0795795 0.00470534 0)
(-0.0628029 0.00336897 0)
(-0.0299187 0.0102067 0)
(-0.0242716 -0.0155574 0)
(-0.0380342 0.0174204 0)
(-0.0494965 0.0198897 0)
(-0.0567227 0.018883 0)
(-0.0627771 0.0169575 0)
(-0.0677494 0.0123719 0)
(-0.0705214 0.00278987 0)
(-0.0640298 -0.0133105 0)
(-0.0510385 -0.0312386 0)
(-0.0132856 -0.0502544 0)
(-0.0253626 0.00823208 0)
(-0.0309807 0.0192322 0)
(-0.0282148 0.0200359 0)
(-0.0241266 0.0192373 0)
(-0.0201607 0.018035 0)
(-0.0172841 0.0142265 0)
(-0.0180559 0.00112616 0)
(-0.00677953 -0.0209712 0)
(-0.0136945 -0.0425187 0)
(0.0152372 -0.0649274 0)
(0.0345479 0.046235 0)
(0.035356 0.0271642 0)
(0.0569848 0.0203796 0)
(0.075239 0.0172521 0)
(0.0911135 0.0152461 0)
(0.104456 0.0131749 0)
(0.114507 0.00886018 0)
(0.110201 0.00011124 0)
(0.0809185 -0.0157864 0)
(0.0609659 -0.0427208 0)
)
;

boundaryField
{
    movingWall
    {
        type            fixedValue;
        value           uniform (1 0 0);
    }
    left
    {
        type            fixedValue;
        value           uniform (0 0 0);
    }
    right
    {
        type            fixedValue;
        value           uniform (0 0 0);
    }
    bottom
    {
        type            fixedValue;
        value           uniform (0 0 0);
    }
    frontAndBack
    {
        type            empty;
    }
}


// ************************************************************************* //
