/*--------------------------------*- C++ -*----------------------------------*\
| =========                 |                                                 |
| \\      /  F ield         | OpenFOAM Extend Project: Open source CFD        |
|  \\    /   O peration     | Version:  1.6-ext                               |
|   \\  /    A nd           | Web:      www.extend-project.de                 |
|    \\/     M anipulation  |                                                 |
\*---------------------------------------------------------------------------*/
FoamFile
{
    version     2.0;
    format      ascii;
    class       volVectorField;
    location    "1000";
    object      U;
}
// * * * * * * * * * * * * * * * * * * * * * * * * * * * * * * * * * * * * * //

dimensions      [0 1 -1 0 0 0 0];

internalField   nonuniform List<vector> 
100
(
(0.0333518 -0.0419482 0)
(0.0633999 -0.0200718 0)
(0.0772015 -0.010112 0)
(0.0802842 -0.00483071 0)
(0.0784198 -0.00145145 0)
(0.0743024 0.000921006 0)
(0.0682372 0.0028967 0)
(0.0602405 0.00506595 0)
(0.0469735 0.00935269 0)
(0.030431 0.0231443 0)
(0.0137597 -0.0691712 0)
(0.037247 -0.0261341 0)
(0.0429398 -0.00811404 0)
(0.044419 0.000726623 0)
(0.0442185 0.00527003 0)
(0.0432614 0.00792883 0)
(0.0410861 0.0105078 0)
(0.037605 0.014568 0)
(0.028069 0.0238317 0)
(0.0197203 0.048806 0)
(0.00139664 -0.088743 0)
(0.0143586 -0.0346556 0)
(0.0122406 -0.0122314 0)
(0.0132251 -0.00275844 0)
(0.0152994 0.00177466 0)
(0.0171329 0.00538783 0)
(0.0179151 0.00976846 0)
(0.0183875 0.0167612 0)
(0.0132401 0.0314166 0)
(0.0121218 0.0667401 0)
(-0.00617705 -0.0904766 0)
(-0.00288589 -0.0316399 0)
(-0.00667309 -0.0106829 0)
(-0.00455807 -0.00345227 0)
(-0.00309623 0.000209259 0)
(-0.00240036 0.00434664 0)
(-0.00266611 0.00953728 0)
(-0.00192312 0.0179171 0)
(-0.00517438 0.034812 0)
(0.00414527 0.0738122 0)
(-0.0110702 -0.0821902 0)
(-0.0144037 -0.0294889 0)
(-0.0191734 -0.0124368 0)
(-0.0200905 -0.00544277 0)
(-0.0232216 -0.000176639 0)
(-0.0263296 0.00475467 0)
(-0.0293503 0.00983183 0)
(-0.0304026 0.0167803 0)
(-0.0283199 0.0297527 0)
(-0.00844713 0.0614846 0)
(-0.0152706 -0.0664881 0)
(-0.0257525 -0.0203019 0)
(-0.0383195 -0.0057646 0)
(-0.047776 0.00174636 0)
(-0.0557196 0.00686666 0)
(-0.0622807 0.0112732 0)
(-0.0670943 0.0153622 0)
(-0.0672985 0.0195533 0)
(-0.0570257 0.0262542 0)
(-0.0288767 0.0403027 0)
(-0.0198429 -0.0419883 0)
(-0.0372471 -0.0023555 0)
(-0.0543286 0.00793475 0)
(-0.0646945 0.0114954 0)
(-0.0731006 0.0141923 0)
(-0.0795758 0.0157094 0)
(-0.0833294 0.0141829 0)
(-0.0806471 0.00663659 0)
(-0.0649634 -0.00811729 0)
(-0.0255921 -0.0372839 0)
(-0.0229307 -0.0135425 0)
(-0.0356348 0.0177587 0)
(-0.0456389 0.0204378 0)
(-0.0511719 0.020505 0)
(-0.0548842 0.0208267 0)
(-0.0571369 0.0195694 0)
(-0.0587627 0.013294 0)
(-0.0535577 -0.00407831 0)
(-0.0443665 -0.0298053 0)
(0.0023461 -0.069017 0)
(-0.0249994 0.00943658 0)
(-0.030388 0.018647 0)
(-0.0275462 0.0190016 0)
(-0.0229947 0.0182087 0)
(-0.0178002 0.0179177 0)
(-0.0115324 0.0169051 0)
(-0.0113678 0.0100193 0)
(0.00704849 -0.0132911 0)
(-0.00898166 -0.0420448 0)
(0.0320268 -0.081812 0)
(0.0346122 0.0463421 0)
(0.0363085 0.0270706 0)
(0.0573085 0.0199691 0)
(0.0748632 0.01657 0)
(0.0900069 0.0144795 0)
(0.104117 0.0127446 0)
(0.11543 0.00914281 0)
(0.118618 0.00260348 0)
(0.0927839 -0.0119984 0)
(0.0765219 -0.0568381 0)
)
;

boundaryField
{
    movingWall
    {
        type            fixedValue;
        value           uniform (1 0 0);
    }
    left
    {
        type            fixedValue;
        value           uniform (0 0 0);
    }
    right
    {
        type            fixedValue;
        value           uniform (0 0 0);
    }
    bottom
    {
        type            fixedValue;
        value           uniform (0 0 0);
    }
    frontAndBack
    {
        type            empty;
    }
}


// ************************************************************************* //
