/*--------------------------------*- C++ -*----------------------------------*\
| =========                 |                                                 |
| \\      /  F ield         | OpenFOAM Extend Project: Open source CFD        |
|  \\    /   O peration     | Version:  1.6-ext                               |
|   \\  /    A nd           | Web:      www.extend-project.de                 |
|    \\/     M anipulation  |                                                 |
\*---------------------------------------------------------------------------*/
FoamFile
{
    version     2.0;
    format      ascii;
    class       volScalarField;
    location    "1000";
    object      epsilon;
}
// * * * * * * * * * * * * * * * * * * * * * * * * * * * * * * * * * * * * * //

dimensions      [0 2 -3 0 0 0 0];

internalField   nonuniform List<scalar> 
100
(
0.00011113
0.000113017
0.000104015
9.36099e-05
8.58534e-05
7.93142e-05
7.2709e-05
6.52244e-05
5.66615e-05
4.57597e-05
0.000139828
0.000130797
0.000112485
0.000118188
0.000124454
0.000122028
0.000109156
8.9631e-05
7.37291e-05
6.10227e-05
0.000164058
0.00014433
9.40191e-05
9.59407e-05
0.000108098
0.000108038
9.53568e-05
7.56831e-05
6.84574e-05
6.4164e-05
0.000188298
0.000158725
8.08449e-05
8.19313e-05
9.30989e-05
9.46188e-05
8.18772e-05
6.12718e-05
6.12503e-05
5.89057e-05
0.000211947
0.000156619
9.43533e-05
0.000100819
0.000111149
0.00010591
8.46391e-05
6.09573e-05
5.57952e-05
5.30067e-05
0.000234783
0.000170865
0.000126547
0.000127883
0.000122442
0.000107154
8.87826e-05
7.48362e-05
7.04285e-05
4.91386e-05
0.000262609
0.000209016
0.000143259
0.000129961
0.000130473
0.000136802
0.000151689
0.000177151
0.000193083
0.00010581
0.000301591
0.000267516
0.000256072
0.000292539
0.000331949
0.000357466
0.000374022
0.00040295
0.000351212
0.000231373
0.000480482
0.000530647
0.000734898
0.00105204
0.00138942
0.00159425
0.00155632
0.00092014
0.000461838
0.000296454
0.000299092
0.00039281
0.000475687
0.000579297
0.000690249
0.00076367
0.00071062
0.0006084
0.00049519
0.000372766
)
;

boundaryField
{
    movingWall
    {
        type            epsilonWallFunction;
        Cmu             0.09;
        kappa           0.41;
        E               9.8;
        value           nonuniform List<scalar> 10(0.000299092 0.00039281 0.000475687 0.000579297 0.000690249 0.00076367 0.00071062 0.0006084 0.00049519 0.000372766);
    }
    left
    {
        type            epsilonWallFunction;
        Cmu             0.09;
        kappa           0.41;
        E               9.8;
        value           nonuniform List<scalar> 10(0.00011113 0.000139828 0.000164058 0.000188298 0.000211947 0.000234783 0.000262609 0.000301591 0.000480482 0.000299092);
    }
    right
    {
        type            epsilonWallFunction;
        Cmu             0.09;
        kappa           0.41;
        E               9.8;
        value           nonuniform List<scalar> 10(4.57597e-05 6.10227e-05 6.4164e-05 5.89057e-05 5.30067e-05 4.91386e-05 0.00010581 0.000231373 0.000296454 0.000372766);
    }
    bottom
    {
        type            epsilonWallFunction;
        Cmu             0.09;
        kappa           0.41;
        E               9.8;
        value           nonuniform List<scalar> 10(0.00011113 0.000113017 0.000104015 9.36099e-05 8.58534e-05 7.93142e-05 7.2709e-05 6.52244e-05 5.66615e-05 4.57597e-05);
    }
    frontAndBack
    {
        type            empty;
    }
}


// ************************************************************************* //
