/*--------------------------------*- C++ -*----------------------------------*\
| =========                 |                                                 |
| \\      /  F ield         | OpenFOAM Extend Project: Open source CFD        |
|  \\    /   O peration     | Version:  1.6-ext                               |
|   \\  /    A nd           | Web:      www.extend-project.de                 |
|    \\/     M anipulation  |                                                 |
\*---------------------------------------------------------------------------*/
FoamFile
{
    version     2.0;
    format      ascii;
    class       volScalarField;
    location    "1000";
    object      G;
}
// * * * * * * * * * * * * * * * * * * * * * * * * * * * * * * * * * * * * * //

dimensions      [1 0 -3 0 0 0 0];

internalField   nonuniform List<scalar> 
100
(
4262.51
4267.22
4272.07
4277.02
4282.07
4287.2
4292.41
4297.7
4303.06
4308.48
4263.23
4267.89
4272.69
4277.6
4282.61
4287.7
4292.88
4298.13
4303.44
4308.79
4263.79
4268.43
4273.2
4278.08
4283.05
4288.12
4293.27
4298.49
4303.77
4309.1
4264.21
4268.84
4273.59
4278.45
4283.41
4288.47
4293.6
4298.8
4304.06
4309.38
4264.5
4269.13
4273.88
4278.73
4283.68
4288.73
4293.85
4299.04
4304.3
4309.61
4264.67
4269.3
4274.05
4278.91
4283.87
4288.91
4294.03
4299.22
4304.48
4309.79
4264.72
4269.36
4274.12
4278.99
4283.96
4289.01
4294.14
4299.34
4304.6
4309.92
4264.62
4269.28
4274.08
4278.98
4283.97
4289.04
4294.18
4299.39
4304.66
4309.99
4264.37
4269.08
4273.93
4278.87
4283.9
4289
4294.16
4299.38
4304.66
4310
4263.92
4268.74
4273.68
4278.69
4283.76
4288.89
4294.07
4299.31
4304.61
4309.98
)
;

boundaryField
{
    movingWall
    {
        type            MarshakRadiation;
        T               T;
        emissivity      1;
        value           nonuniform List<scalar> 10(4263.53 4268.51 4273.52 4278.57 4283.66 4288.81 4294 4299.24 4304.55 4309.97);
    }
    left
    {
        type            MarshakRadiation;
        T               T;
        emissivity      1;
        value           nonuniform List<scalar> 10(4260.26 4260.98 4261.54 4261.96 4262.25 4262.42 4262.46 4262.37 4262.12 4261.67);
    }
    right
    {
        type            MarshakRadiation;
        T               T;
        emissivity      1;
        value           nonuniform List<scalar> 10(4311.15 4311.46 4311.77 4312.06 4312.29 4312.48 4312.61 4312.67 4312.69 4312.67);
    }
    bottom
    {
        type            MarshakRadiation;
        T               T;
        emissivity      1;
        value           nonuniform List<scalar> 10(4262.04 4266.82 4271.7 4276.69 4281.76 4286.91 4292.15 4297.45 4302.84 4308.36);
    }
    frontAndBack
    {
        type            empty;
    }
}


// ************************************************************************* //
