/*--------------------------------*- C++ -*----------------------------------*\
| =========                 |                                                 |
| \\      /  F ield         | OpenFOAM Extend Project: Open source CFD        |
|  \\    /   O peration     | Version:  1.6-ext                               |
|   \\  /    A nd           | Web:      www.extend-project.de                 |
|    \\/     M anipulation  |                                                 |
\*---------------------------------------------------------------------------*/
FoamFile
{
    version     2.0;
    format      ascii;
    class       volScalarField;
    location    "1000";
    object      G;
}
// * * * * * * * * * * * * * * * * * * * * * * * * * * * * * * * * * * * * * //

dimensions      [1 0 -3 0 0 0 0];

internalField   nonuniform List<scalar> 
100
(
4277.77
4282.49
4287.32
4292.24
4297.23
4302.29
4307.41
4312.6
4317.83
4323.12
4278.45
4283.12
4287.9
4292.78
4297.73
4302.76
4307.84
4312.99
4318.17
4323.38
4278.99
4283.63
4288.39
4293.23
4298.16
4303.16
4308.22
4313.33
4318.49
4323.67
4279.41
4284.04
4288.78
4293.61
4298.52
4303.5
4308.54
4313.64
4318.78
4323.95
4279.71
4284.35
4289.08
4293.9
4298.81
4303.78
4308.82
4313.9
4319.04
4324.21
4279.91
4284.55
4289.29
4294.12
4299.02
4304
4309.03
4314.12
4319.25
4324.43
4280.01
4284.65
4289.41
4294.25
4299.17
4304.16
4309.2
4314.29
4319.43
4324.61
4279.98
4284.65
4289.44
4294.31
4299.26
4304.26
4309.32
4314.42
4319.57
4324.75
4279.8
4284.53
4289.38
4294.3
4299.28
4304.31
4309.39
4314.5
4319.67
4324.86
4279.43
4284.29
4289.24
4294.23
4299.26
4304.32
4309.41
4314.54
4319.73
4324.97
)
;

boundaryField
{
    movingWall
    {
        type            MarshakRadiation;
        T               T;
        emissivity      1;
        value           nonuniform List<scalar> 10(4279.09 4284.12 4289.14 4294.18 4299.24 4304.31 4309.41 4314.54 4319.73 4325.05);
    }
    left
    {
        type            MarshakRadiation;
        T               T;
        emissivity      1;
        value           nonuniform List<scalar> 10(4275.51 4276.19 4276.73 4277.14 4277.45 4277.65 4277.74 4277.71 4277.54 4277.17);
    }
    right
    {
        type            MarshakRadiation;
        T               T;
        emissivity      1;
        value           nonuniform List<scalar> 10(4325.71 4325.97 4326.26 4326.55 4326.81 4327.04 4327.22 4327.36 4327.47 4327.57);
    }
    bottom
    {
        type            MarshakRadiation;
        T               T;
        emissivity      1;
        value           nonuniform List<scalar> 10(4277.34 4282.12 4286.99 4291.93 4296.95 4302.03 4307.17 4312.37 4317.64 4323.05);
    }
    frontAndBack
    {
        type            empty;
    }
}


// ************************************************************************* //
