/*--------------------------------*- C++ -*----------------------------------*\
| =========                 |                                                 |
| \\      /  F ield         | OpenFOAM Extend Project: Open source CFD        |
|  \\    /   O peration     | Version:  1.6-ext                               |
|   \\  /    A nd           | Web:      www.extend-project.de                 |
|    \\/     M anipulation  |                                                 |
\*---------------------------------------------------------------------------*/
FoamFile
{
    version     2.0;
    format      ascii;
    class       volScalarField;
    location    "1000";
    object      nut;
}
// * * * * * * * * * * * * * * * * * * * * * * * * * * * * * * * * * * * * * //

dimensions      [0 2 -1 0 0 0 0];

internalField   nonuniform List<scalar> 
100
(
1.25262e-05
1.26456e-05
1.23463e-05
1.19591e-05
1.16279e-05
1.13365e-05
1.10287e-05
1.06548e-05
1.01698e-05
9.45213e-06
1.35244e-05
2.31616e-05
2.62745e-05
2.96518e-05
3.17561e-05
3.20366e-05
3.02603e-05
2.65552e-05
2.11919e-05
1.04316e-05
1.42645e-05
3.2344e-05
3.66018e-05
4.32164e-05
4.61656e-05
4.50662e-05
4.05539e-05
3.32211e-05
2.46889e-05
1.04868e-05
1.49454e-05
3.98645e-05
4.35038e-05
4.96017e-05
5.24296e-05
4.97631e-05
4.28389e-05
3.27656e-05
2.25619e-05
1.00908e-05
1.55604e-05
4.02094e-05
4.33194e-05
4.70422e-05
4.6934e-05
4.26128e-05
3.49367e-05
2.58688e-05
1.7788e-05
9.71967e-06
1.60715e-05
3.88363e-05
3.73631e-05
3.41033e-05
3.07573e-05
2.65117e-05
2.18673e-05
1.78909e-05
1.49538e-05
1.04371e-05
1.64892e-05
3.54054e-05
3.01066e-05
2.62509e-05
2.37558e-05
2.18901e-05
2.08874e-05
2.10524e-05
2.15423e-05
1.53816e-05
1.69244e-05
3.50275e-05
3.27479e-05
3.17385e-05
3.15328e-05
3.12448e-05
3.06822e-05
3.02116e-05
2.62143e-05
1.6808e-05
1.97309e-05
4.03564e-05
4.46023e-05
4.9299e-05
5.36545e-05
5.6409e-05
5.66918e-05
4.69932e-05
2.82257e-05
1.78586e-05
1.69503e-05
1.84617e-05
1.95889e-05
2.08051e-05
2.19837e-05
2.28433e-05
2.2758e-05
2.17619e-05
2.04866e-05
1.89087e-05
)
;

boundaryField
{
    movingWall
    {
        type            nutWallFunction;
        Cmu             0.09;
        kappa           0.41;
        E               9.8;
        value           uniform 0;
    }
    left
    {
        type            nutWallFunction;
        Cmu             0.09;
        kappa           0.41;
        E               9.8;
        value           uniform 0;
    }
    right
    {
        type            nutWallFunction;
        Cmu             0.09;
        kappa           0.41;
        E               9.8;
        value           uniform 0;
    }
    bottom
    {
        type            nutWallFunction;
        Cmu             0.09;
        kappa           0.41;
        E               9.8;
        value           uniform 0;
    }
    frontAndBack
    {
        type            empty;
    }
}


// ************************************************************************* //
