/*--------------------------------*- C++ -*----------------------------------*\
| =========                 |                                                 |
| \\      /  F ield         | OpenFOAM Extend Project: Open source CFD        |
|  \\    /   O peration     | Version:  1.6-ext                               |
|   \\  /    A nd           | Web:      www.extend-project.de                 |
|    \\/     M anipulation  |                                                 |
\*---------------------------------------------------------------------------*/
FoamFile
{
    version     2.0;
    format      ascii;
    class       volScalarField;
    location    "1000";
    object      nut;
}
// * * * * * * * * * * * * * * * * * * * * * * * * * * * * * * * * * * * * * //

dimensions      [0 2 -1 0 0 0 0];

internalField   nonuniform List<scalar> 
100
(
1.25203e-05
1.25908e-05
1.22472e-05
1.18244e-05
1.14883e-05
1.11889e-05
1.08693e-05
1.04828e-05
1.00023e-05
9.31464e-06
1.35167e-05
2.26822e-05
2.52298e-05
2.82994e-05
3.03013e-05
3.05761e-05
2.8854e-05
2.52899e-05
2.05038e-05
1.02526e-05
1.42562e-05
3.19726e-05
3.47242e-05
4.05865e-05
4.30911e-05
4.20951e-05
3.79333e-05
3.12999e-05
2.45675e-05
1.04256e-05
1.49263e-05
3.98577e-05
4.17956e-05
4.72053e-05
4.95171e-05
4.74946e-05
4.12467e-05
3.21943e-05
2.47808e-05
1.01327e-05
1.55268e-05
3.97245e-05
4.21371e-05
4.59094e-05
4.67373e-05
4.30975e-05
3.58826e-05
2.71582e-05
2.01987e-05
9.78248e-06
1.60655e-05
3.80382e-05
3.86542e-05
3.69578e-05
3.3668e-05
2.90092e-05
2.38449e-05
1.9328e-05
1.59354e-05
9.53848e-06
1.66766e-05
3.44494e-05
2.94029e-05
2.57058e-05
2.29254e-05
2.07039e-05
1.9256e-05
1.8574e-05
1.74437e-05
1.23173e-05
1.7464e-05
3.50174e-05
3.25795e-05
3.15275e-05
3.11048e-05
3.04076e-05
2.92272e-05
2.75519e-05
2.29482e-05
1.59873e-05
2.03969e-05
4.12551e-05
4.58604e-05
5.14152e-05
5.68786e-05
6.03299e-05
5.93968e-05
4.14225e-05
2.51102e-05
1.73643e-05
1.74157e-05
1.90721e-05
2.03288e-05
2.1709e-05
2.30148e-05
2.38035e-05
2.3239e-05
2.20666e-05
2.06029e-05
1.87421e-05
)
;

boundaryField
{
    movingWall
    {
        type            nutWallFunction;
        Cmu             0.09;
        kappa           0.41;
        E               9.8;
        value           uniform 0;
    }
    left
    {
        type            nutWallFunction;
        Cmu             0.09;
        kappa           0.41;
        E               9.8;
        value           uniform 0;
    }
    right
    {
        type            calculated;
        value           nonuniform List<scalar> 10(9.31464e-06 1.02526e-05 1.04256e-05 1.01327e-05 9.78248e-06 9.53848e-06 1.23173e-05 1.59873e-05 1.73643e-05 1.87421e-05);
    }
    bottom
    {
        type            nutWallFunction;
        Cmu             0.09;
        kappa           0.41;
        E               9.8;
        value           uniform 0;
    }
    frontAndBack
    {
        type            empty;
    }
}


// ************************************************************************* //
