/*--------------------------------*- C++ -*----------------------------------*\
| =========                 |                                                 |
| \\      /  F ield         | OpenFOAM Extend Project: Open source CFD        |
|  \\    /   O peration     | Version:  1.6-ext                               |
|   \\  /    A nd           | Web:      www.extend-project.de                 |
|    \\/     M anipulation  |                                                 |
\*---------------------------------------------------------------------------*/
FoamFile
{
    version     2.0;
    format      ascii;
    class       volScalarField;
    location    "1000";
    object      p_rgh;
}
// * * * * * * * * * * * * * * * * * * * * * * * * * * * * * * * * * * * * * //

dimensions      [0 2 -2 0 0 0 0];

internalField   nonuniform List<scalar> 
100
(
1.67956e-15
-0.00283888
-0.00514963
-0.00615937
-0.00657996
-0.00680717
-0.00691657
-0.00690545
-0.00685176
-0.00698702
-0.00230385
-0.00576947
-0.00694456
-0.00725266
-0.00725429
-0.00717811
-0.0070917
-0.0069853
-0.00708817
-0.00860524
-0.00347155
-0.00865193
-0.00921365
-0.00896667
-0.00845343
-0.0080176
-0.00769543
-0.0074857
-0.00786947
-0.0115386
-0.00394219
-0.0112218
-0.0113017
-0.0106544
-0.00991225
-0.00928979
-0.00877999
-0.00844732
-0.00903822
-0.0146992
-0.00388813
-0.0128531
-0.0130902
-0.0125004
-0.0119338
-0.0115167
-0.01124
-0.0112279
-0.0122012
-0.0173451
-0.00333065
-0.014643
-0.0154871
-0.0157461
-0.0159705
-0.0162274
-0.0165059
-0.0166522
-0.0168926
-0.0194181
-0.00256601
-0.0172772
-0.0195555
-0.0205432
-0.0215544
-0.0225925
-0.0234021
-0.0234902
-0.0229126
-0.0239126
-0.0011939
-0.0177362
-0.0203604
-0.0214752
-0.022332
-0.0230112
-0.023236
-0.0222589
-0.0214105
-0.0235287
0.00230562
-0.0159137
-0.0190793
-0.0202424
-0.0209867
-0.0213835
-0.0208557
-0.0182613
-0.0162004
-0.019019
0.0114424
-0.00149451
-0.00742736
-0.0109497
-0.0133404
-0.0151898
-0.0157909
-0.014079
-0.010609
-0.00952445
)
;

boundaryField
{
    movingWall
    {
        type            buoyantPressure;
        gradient        nonuniform List<scalar> 10(-4.16339 -1.94669 -1.03594 -0.555397 -0.272911 -0.114059 -0.0687729 -0.0567577 -0.00747877 0.90503);
        rho             rhok;
        value           nonuniform List<scalar> 10(-0.00937456 -0.011228 -0.0126071 -0.0137267 -0.014705 -0.0157601 -0.0161347 -0.0143628 -0.0106464 -0.0049993);
    }
    left
    {
        type            buoyantPressure;
        gradient        nonuniform List<scalar> 10(0.528192 1.66994 3.03654 4.58765 6.31727 8.15929 10.1042 11.7462 12.6746 12.2856);
        rho             rhok;
        value           nonuniform List<scalar> 10(0.00264096 0.00604586 0.0117111 0.0189961 0.0276982 0.0374658 0.047955 0.0575371 0.0656786 0.0728706);
    }
    right
    {
        type            buoyantPressure;
        gradient        nonuniform List<scalar> 10(-0.652947 -1.91034 -3.04974 -3.97624 -4.72211 -5.18484 -5.03738 -6.03462 -7.71535 -9.70162);
        rho             rhok;
        value           nonuniform List<scalar> 10(-0.0102518 -0.0181569 -0.0267873 -0.0345804 -0.0409557 -0.0453423 -0.0490995 -0.0537018 -0.0575958 -0.0580325);
    }
    bottom
    {
        type            buoyantPressure;
        gradient        uniform 0;
        rho             rhok;
        value           nonuniform List<scalar> 10(1.67956e-15 -0.00283888 -0.00514963 -0.00615937 -0.00657996 -0.00680717 -0.00691657 -0.00690545 -0.00685176 -0.00698702);
    }
    frontAndBack
    {
        type            empty;
    }
}


// ************************************************************************* //
