/*--------------------------------*- C++ -*----------------------------------*\
| =========                 |                                                 |
| \\      /  F ield         | OpenFOAM Extend Project: Open source CFD        |
|  \\    /   O peration     | Version:  1.6-ext                               |
|   \\  /    A nd           | Web:      www.extend-project.de                 |
|    \\/     M anipulation  |                                                 |
\*---------------------------------------------------------------------------*/
FoamFile
{
    version     2.0;
    format      ascii;
    class       volScalarField;
    location    "1000";
    object      p_rgh;
}
// * * * * * * * * * * * * * * * * * * * * * * * * * * * * * * * * * * * * * //

dimensions      [0 2 -2 0 0 0 0];

internalField   nonuniform List<scalar> 
100
(
1.5984e-14
-0.00280986
-0.00521691
-0.0063505
-0.00685128
-0.00710555
-0.00720719
-0.00715059
-0.00705086
-0.00692737
-0.00220254
-0.00564813
-0.00696406
-0.00740893
-0.00748814
-0.00744067
-0.00734853
-0.00720399
-0.00725917
-0.00829174
-0.00326225
-0.0083962
-0.00915541
-0.00906023
-0.00863709
-0.00822755
-0.00790814
-0.0076864
-0.00802255
-0.0108539
-0.00358522
-0.0106823
-0.0110008
-0.0104846
-0.00981632
-0.00925981
-0.00885348
-0.00866672
-0.00936601
-0.013397
-0.00325574
-0.0119176
-0.0123686
-0.0119173
-0.0115741
-0.0113653
-0.0113626
-0.0115954
-0.0123893
-0.0152667
-0.00230114
-0.0131433
-0.0143421
-0.0148456
-0.0152243
-0.0157134
-0.0162731
-0.0166213
-0.016531
-0.0174966
-0.00126286
-0.0149845
-0.0171078
-0.0180233
-0.0189369
-0.0199444
-0.0208784
-0.0212291
-0.0206607
-0.0200508
-2.98808e-05
-0.015371
-0.0178597
-0.0189214
-0.0197994
-0.0206515
-0.0213079
-0.0206944
-0.0197743
-0.0193403
0.00251094
-0.0140546
-0.0169759
-0.0181095
-0.0189832
-0.0198217
-0.0204895
-0.0186353
-0.016688
-0.0154853
0.00979986
-0.00174442
-0.00718795
-0.0104487
-0.0126988
-0.0145737
-0.0159316
-0.0154092
-0.0127407
-0.00849145
)
;

boundaryField
{
    movingWall
    {
        type            buoyantPressure;
        gradient        nonuniform List<scalar> 10(-4.68537 -2.66811 -1.81377 -1.34404 -1.04815 -0.854383 -0.754289 -0.717918 -0.670403 -0.154616);
        rho             rhok;
        value           nonuniform List<scalar> 10(-0.013627 -0.015085 -0.0162568 -0.0171689 -0.0179395 -0.0188456 -0.0197031 -0.0189988 -0.0160928 -0.00926453);
    }
    left
    {
        type            buoyantPressure;
        gradient        nonuniform List<scalar> 10(0.493334 1.54093 2.79903 4.22647 5.80818 7.47056 9.17038 10.6566 11.633 11.491);
        rho             rhok;
        value           nonuniform List<scalar> 10(0.00246667 0.00550213 0.0107329 0.0175471 0.0257852 0.0350517 0.0445891 0.0532532 0.0606761 0.067255);
    }
    right
    {
        type            buoyantPressure;
        gradient        nonuniform List<scalar> 10(-0.714305 -2.12557 -3.42745 -4.53262 -5.45261 -5.95041 -6.5656 -8.1471 -9.77209 -11.5266);
        rho             rhok;
        value           nonuniform List<scalar> 10(-0.0104989 -0.0189196 -0.0279912 -0.0360601 -0.0425298 -0.0472486 -0.0528788 -0.0600758 -0.0643457 -0.0661246);
    }
    bottom
    {
        type            buoyantPressure;
        gradient        uniform 0;
        rho             rhok;
        value           nonuniform List<scalar> 10(1.5984e-14 -0.00280986 -0.00521691 -0.0063505 -0.00685128 -0.00710555 -0.00720719 -0.00715059 -0.00705086 -0.00692737);
    }
    frontAndBack
    {
        type            empty;
    }
}


// ************************************************************************* //
