/*--------------------------------*- C++ -*----------------------------------*\
| =========                 |                                                 |
| \\      /  F ield         | OpenFOAM Extend Project: Open source CFD        |
|  \\    /   O peration     | Version:  1.6-ext                               |
|   \\  /    A nd           | Web:      www.extend-project.de                 |
|    \\/     M anipulation  |                                                 |
\*---------------------------------------------------------------------------*/
FoamFile
{
    version     2.0;
    format      ascii;
    class       surfaceScalarField;
    location    "1000";
    object      phi;
}
// * * * * * * * * * * * * * * * * * * * * * * * * * * * * * * * * * * * * * //

dimensions      [0 3 -1 0 0 0 0];

internalField   nonuniform List<scalar> 
180
(
5.07206e-06
-5.07206e-06
6.91419e-06
-1.84213e-06
7.53125e-06
-6.17054e-07
7.54633e-06
-1.50841e-08
7.2429e-06
3.03432e-07
6.75873e-06
4.84172e-07
6.11312e-06
6.45604e-07
5.22123e-06
8.91888e-07
3.68723e-06
1.534e-06
3.68723e-06
2.77567e-06
-7.84773e-06
3.84535e-06
-2.9118e-06
4.12209e-06
-8.93797e-07
4.12698e-06
-1.99749e-08
4.06282e-06
3.67593e-07
3.94966e-06
5.97336e-07
3.73045e-06
8.64808e-07
3.26716e-06
1.35518e-06
2.21908e-06
2.58207e-06
5.90632e-06
1.01713e-06
-8.86486e-06
1.14268e-06
-3.03736e-06
1.09507e-06
-8.4618e-07
1.18842e-06
-1.13334e-07
1.41267e-06
1.43349e-07
1.63085e-06
3.79155e-07
1.78024e-06
7.15417e-07
1.75667e-06
1.37875e-06
1.29226e-06
3.04648e-06
7.19858e-06
-2.70705e-07
-8.59415e-06
-5.48086e-07
-2.75998e-06
-5.40306e-07
-8.5396e-07
-3.67147e-07
-2.86493e-07
-1.76277e-07
-4.75204e-08
-3.39842e-09
2.06277e-07
1.47706e-07
5.64313e-07
2.25677e-07
1.30078e-06
1.5772e-07
3.11444e-06
7.3563e-06
-1.0929e-06
-7.50125e-06
-1.53126e-06
-2.32162e-06
-1.62403e-06
-7.61197e-07
-1.71757e-06
-1.92948e-07
-1.88962e-06
1.24533e-07
-2.0572e-06
3.7385e-07
-2.13734e-06
6.44451e-07
-2.00772e-06
1.17116e-06
-1.41652e-06
2.52324e-06
5.93978e-06
-1.78925e-06
-5.712e-06
-2.88223e-06
-1.22863e-06
-3.69715e-06
5.37143e-08
-4.41128e-06
5.21181e-07
-5.01293e-06
7.26192e-07
-5.43905e-06
7.99967e-07
-5.54052e-06
7.45924e-07
-5.01157e-06
6.42212e-07
-3.42266e-06
9.34326e-07
2.51712e-06
-2.73099e-06
-2.98101e-06
-4.6786e-06
7.18974e-07
-5.99265e-06
1.36776e-06
-6.94915e-06
1.47768e-06
-7.6973e-06
1.47435e-06
-8.1674e-06
1.27006e-06
-8.12811e-06
7.0664e-07
-7.15236e-06
-3.33537e-07
-4.83133e-06
-1.38671e-06
-2.31421e-06
-2.90872e-06
-7.22982e-08
-4.27852e-06
2.08878e-06
-5.11842e-06
2.20767e-06
-5.73979e-06
2.09905e-06
-6.22394e-06
1.95849e-06
-6.53372e-06
1.57984e-06
-6.42022e-06
5.93143e-07
-5.47434e-06
-1.27941e-06
-3.42815e-06
-3.4329e-06
-5.74236e-06
-2.85703e-06
2.78473e-06
-2.87245e-06
2.1042e-06
-2.49457e-06
1.82979e-06
-2.06329e-06
1.66776e-06
-1.62676e-06
1.52197e-06
-1.28729e-06
1.24037e-06
-9.30406e-07
2.36261e-07
-6.86473e-07
-1.52334e-06
-5.45413e-07
-3.57396e-06
-6.28777e-06
2.78473e-06
4.88893e-06
6.71872e-06
8.38648e-06
9.90845e-06
1.11488e-05
1.13851e-05
9.86173e-06
6.28777e-06
)
;

boundaryField
{
    movingWall
    {
        type            calculated;
        value           nonuniform List<scalar> 10(-3.38813e-21 0 -4.23516e-22 2.11758e-22 -1.05879e-22 5.29396e-23 -2.64698e-23 0 0 0);
    }
    left
    {
        type            calculated;
        value           nonuniform List<scalar> 10(4.23516e-22 8.47033e-22 -1.69407e-21 0 0 6.77626e-21 0 0 0 0);
    }
    right
    {
        type            calculated;
        value           nonuniform List<scalar> 10(0 -1.69407e-21 0 3.38813e-21 3.38813e-21 0 0 3.38813e-21 0 0);
    }
    bottom
    {
        type            calculated;
        value           uniform 0;
    }
    frontAndBack
    {
        type            empty;
    }
}


// ************************************************************************* //
