/*--------------------------------*- C++ -*----------------------------------*\
| =========                 |                                                 |
| \\      /  F ield         | OpenFOAM Extend Project: Open source CFD        |
|  \\    /   O peration     | Version:  1.6-ext                               |
|   \\  /    A nd           | Web:      www.extend-project.de                 |
|    \\/     M anipulation  |                                                 |
\*---------------------------------------------------------------------------*/
FoamFile
{
    version     2.0;
    format      ascii;
    class       volScalarField;
    location    "1000";
    object      Qr;
}
// * * * * * * * * * * * * * * * * * * * * * * * * * * * * * * * * * * * * * //

dimensions      [1 0 -3 0 0 0 0];

internalField   uniform 0;

boundaryField
{
    movingWall
    {
        type            calculated;
        value           nonuniform List<scalar> 10(257.979 152.711 106.754 81.4593 65.3042 54.2885 47.8358 44.5001 40.3245 8.94898);
    }
    left
    {
        type            calculated;
        value           nonuniform List<scalar> 10(1500.24 1500.6 1500.88 1501.09 1501.24 1501.32 1501.34 1501.3 1501.17 1500.94);
    }
    right
    {
        type            calculated;
        value           nonuniform List<scalar> 10(-1782.76 -1783.26 -1784.57 -1786.55 -1788.83 -1791.39 -1792.99 -1792.74 -1792.14 -1791.49);
    }
    bottom
    {
        type            calculated;
        value           nonuniform List<scalar> 10(311.581 267.511 242.296 223.713 207.778 193.319 179.549 165.545 147.292 77.9016);
    }
    frontAndBack
    {
        type            empty;
    }
}


// ************************************************************************* //
