/*--------------------------------*- C++ -*----------------------------------*\
| =========                 |                                                 |
| \\      /  F ield         | OpenFOAM Extend Project: Open source CFD        |
|  \\    /   O peration     | Version:  1.6-ext                               |
|   \\  /    A nd           | Web:      www.extend-project.de                 |
|    \\/     M anipulation  |                                                 |
\*---------------------------------------------------------------------------*/
FoamFile
{
    version     2.0;
    format      ascii;
    class       volScalarField;
    location    "1000";
    object      T;
}
// * * * * * * * * * * * * * * * * * * * * * * * * * * * * * * * * * * * * * //

dimensions      [0 0 0 1 0 0 0];

internalField   nonuniform List<scalar> 
100
(
326.842
333.725
337.29
339.823
342.069
344.146
346.119
348.092
350.792
363.787
329.743
340.537
343.295
344.065
344.554
345.054
345.689
346.698
349.422
365.453
334.907
351.046
352.961
352.025
350.405
349.246
348.531
348.476
350.79
368.244
339.807
359.032
359.362
357.419
355.293
353.558
352.217
351.638
353.886
372.605
344.551
363.623
363.917
362.172
360.586
359.436
358.8
359.196
362.412
377.118
348.612
368.117
369.148
369.087
369.063
369.337
370.105
371.508
374.367
382.641
352.23
373.671
376.505
377.458
378.711
380.282
382.091
384.047
386.404
391.241
352.825
374.502
377.645
378.685
379.44
379.996
380.308
380.505
382.29
389.672
349
371.345
375.281
376.505
377.031
376.935
375.886
374.06
374.755
384.324
338.914
355.81
362.843
366.62
368.909
370.262
370.733
370.942
371.438
378.443
)
;

boundaryField
{
    movingWall
    {
        type            adiabatic;
        K               kappaEff;
        value           nonuniform List<scalar> 10(360.134 365.732 368.123 369.451 370.3 370.844 371.083 371.231 371.476 373.831);
    }
    left
    {
        type            fixedValue;
        value           uniform 273;
    }
    right
    {
        type            chtRcTemperature;
        K               kappaEff;
        radiation       1;
        remoteField     T;
        value           nonuniform List<scalar> 10(430.346 430.364 430.42 430.508 430.602 430.689 430.741 430.682 430.587 430.494);
    }
    bottom
    {
        type            adiabatic;
        K               kappaEff;
        value           nonuniform List<scalar> 10(357.285 359.507 360.77 361.712 362.536 363.293 364.012 364.732 365.662 369.446);
    }
    frontAndBack
    {
        type            empty;
    }
}


// ************************************************************************* //
