/*--------------------------------*- C++ -*----------------------------------*\
| =========                 |                                                 |
| \\      /  F ield         | OpenFOAM Extend Project: Open source CFD        |
|  \\    /   O peration     | Version:  1.6-ext                               |
|   \\  /    A nd           | Web:      www.extend-project.de                 |
|    \\/     M anipulation  |                                                 |
\*---------------------------------------------------------------------------*/
FoamFile
{
    version     2.0;
    format      ascii;
    class       volScalarField;
    location    "1000";
    object      T;
}
// * * * * * * * * * * * * * * * * * * * * * * * * * * * * * * * * * * * * * //

dimensions      [0 0 0 1 0 0 0];

internalField   nonuniform List<scalar> 
100
(
323.289
330.251
333.976
336.654
338.994
341.156
343.223
345.311
348.038
358.879
325.359
336.2
339.24
340.227
340.79
341.371
342.125
343.31
346.077
359.486
330.065
346.067
348.352
347.687
346.216
345.093
344.501
344.709
347.168
361.874
334.548
353.189
353.935
352.16
350.132
348.602
347.746
347.992
351.092
365.803
338.785
357.035
357.576
355.999
354.857
354.22
354.466
355.96
359.748
370.117
342.23
360.806
362.337
362.565
362.802
363.638
365.225
367.6
371.012
376.805
344.908
364.9
367.517
368.37
369.446
370.919
372.749
374.777
376.823
380.51
345.42
365.589
368.61
369.648
370.462
371.154
371.528
371.386
371.689
376.621
342.755
363.132
366.874
368.207
369.036
369.555
369.487
367.842
367.527
373.375
334.65
349.979
356.536
360.177
362.517
364.104
365.013
365.46
366.001
370.111
)
;

boundaryField
{
    movingWall
    {
        type            adiabatic;
        K               kappaEff;
        value           nonuniform List<scalar> 10(358.531 363.578 365.781 367.028 367.859 368.459 368.857 369.119 369.418 370.899);
    }
    left
    {
        type            fixedValue;
        value           uniform 273;
    }
    right
    {
        type            chtRcTemperature;
        K               kappaEff;
        radiation       1;
        remoteField     T;
        value           nonuniform List<scalar> 10(431.693 431.711 431.751 431.809 431.875 431.948 431.993 431.987 431.971 431.953);
    }
    bottom
    {
        type            adiabatic;
        K               kappaEff;
        value           nonuniform List<scalar> 10(355.903 358.153 359.473 360.469 361.335 362.129 362.887 363.653 364.61 367.848);
    }
    frontAndBack
    {
        type            empty;
    }
}


// ************************************************************************* //
