/*--------------------------------*- C++ -*----------------------------------*\
| =========                 |                                                 |
| \\      /  F ield         | OpenFOAM Extend Project: Open source CFD        |
|  \\    /   O peration     | Version:  1.6-ext                               |
|   \\  /    A nd           | Web:      www.extend-project.de                 |
|    \\/     M anipulation  |                                                 |
\*---------------------------------------------------------------------------*/
FoamFile
{
    version     2.0;
    format      ascii;
    class       volVectorField;
    location    "1000";
    object      U;
}
// * * * * * * * * * * * * * * * * * * * * * * * * * * * * * * * * * * * * * //

dimensions      [0 1 -1 0 0 0 0];

internalField   nonuniform List<vector> 
100
(
(0.0328419 -0.0411613 0)
(0.0620671 -0.0193359 0)
(0.0747643 -0.00955651 0)
(0.0770068 -0.0044746 0)
(0.0745792 -0.00124316 0)
(0.0703941 0.000927628 0)
(0.0647535 0.0026423 0)
(0.0575744 0.00448106 0)
(0.0462756 0.00842487 0)
(0.029669 0.0229788 0)
(0.0135391 -0.0680602 0)
(0.0366228 -0.0246051 0)
(0.0412343 -0.00676665 0)
(0.0418764 0.00170718 0)
(0.0411423 0.00568267 0)
(0.0402324 0.00764425 0)
(0.0386552 0.00946474 0)
(0.0360271 0.0127621 0)
(0.0281181 0.0217341 0)
(0.0192806 0.0484154 0)
(0.00131327 -0.0874945 0)
(0.0144017 -0.0321672 0)
(0.0108937 -0.0097869 0)
(0.0109851 -0.0010081 0)
(0.0130717 0.0024539 0)
(0.0153327 0.00487234 0)
(0.0171096 0.00808371 0)
(0.018691 0.0141408 0)
(0.0153318 0.0289271 0)
(0.0126436 0.0669338 0)
(-0.00618556 -0.0895295 0)
(-0.00217043 -0.0281394 0)
(-0.00662323 -0.00732995 0)
(-0.00454536 -0.0015962 0)
(-0.00272106 0.000147975 0)
(-0.000844846 0.00233636 0)
(0.000471676 0.00576207 0)
(0.00269944 0.0128628 0)
(0.000231357 0.0312994 0)
(0.00601031 0.0762134 0)
(-0.0109736 -0.0819259 0)
(-0.0127862 -0.0265966 0)
(-0.016521 -0.00947552 0)
(-0.0163491 -0.00400628 0)
(-0.0179862 -0.000939648 0)
(-0.0199445 0.00199579 0)
(-0.0215113 0.00564937 0)
(-0.0214039 0.0128183 0)
(-0.0202286 0.0298721 0)
(-0.00356005 0.0700364 0)
(-0.0151311 -0.0677315 0)
(-0.023176 -0.0197595 0)
(-0.033252 -0.00544729 0)
(-0.0408263 0.000616873 0)
(-0.0475419 0.00370848 0)
(-0.0529262 0.0058307 0)
(-0.0562804 0.00795394 0)
(-0.0549744 0.0120068 0)
(-0.0452164 0.0232755 0)
(-0.0179763 0.0514798 0)
(-0.0204038 -0.0436096 0)
(-0.0376611 -0.00310754 0)
(-0.0548039 0.00728991 0)
(-0.0651489 0.0101242 0)
(-0.0738249 0.0113095 0)
(-0.0803978 0.0110144 0)
(-0.083584 0.00848691 0)
(-0.0792423 0.00341279 0)
(-0.0623771 -0.000628035 0)
(-0.0293309 0.00169183 0)
(-0.0237345 -0.0140537 0)
(-0.0370169 0.0179476 0)
(-0.047891 0.0204985 0)
(-0.0546188 0.0197043 0)
(-0.0601497 0.0180403 0)
(-0.0646973 0.0136509 0)
(-0.0674011 0.00394597 0)
(-0.0609775 -0.0130436 0)
(-0.0487364 -0.0323886 0)
(-0.0111157 -0.0529695 0)
(-0.0248438 0.00923204 0)
(-0.030275 0.0193207 0)
(-0.0272509 0.020044 0)
(-0.0228221 0.0193066 0)
(-0.018401 0.0182745 0)
(-0.01489 0.0148378 0)
(-0.0155818 0.00212933 0)
(-0.00327943 -0.0207493 0)
(-0.0115904 -0.0438052 0)
(0.0167216 -0.0672578 0)
(0.0346383 0.0463789 0)
(0.0361176 0.0272691 0)
(0.0576981 0.0204008 0)
(0.0759355 0.0172305 0)
(0.0918416 0.0152196 0)
(0.105407 0.0131847 0)
(0.115703 0.00891963 0)
(0.112029 0.000376751 0)
(0.0826894 -0.0155326 0)
(0.0619992 -0.0431341 0)
)
;

boundaryField
{
    movingWall
    {
        type            fixedValue;
        value           uniform (1 0 0);
    }
    left
    {
        type            fixedValue;
        value           uniform (0 0 0);
    }
    right
    {
        type            fixedValue;
        value           uniform (0 0 0);
    }
    bottom
    {
        type            fixedValue;
        value           uniform (0 0 0);
    }
    frontAndBack
    {
        type            empty;
    }
}


// ************************************************************************* //
