/*--------------------------------*- C++ -*----------------------------------*\
| =========                 |                                                 |
| \\      /  F ield         | OpenFOAM Extend Project: Open source CFD        |
|  \\    /   O peration     | Version:  1.6-ext                               |
|   \\  /    A nd           | Web:      www.extend-project.de                 |
|    \\/     M anipulation  |                                                 |
\*---------------------------------------------------------------------------*/
FoamFile
{
    version     2.0;
    format      ascii;
    class       volScalarField;
    location    "1000";
    object      nut;
}
// * * * * * * * * * * * * * * * * * * * * * * * * * * * * * * * * * * * * * //

dimensions      [0 2 -1 0 0 0 0];

internalField   nonuniform List<scalar> 
100
(
2.54679e-05
2.59716e-05
2.51453e-05
2.40861e-05
2.31804e-05
2.23824e-05
2.17142e-05
2.0543e-05
2.13042e-05
2.51405e-05
2.85015e-05
5.29659e-05
5.73869e-05
5.92657e-05
5.95563e-05
5.88854e-05
5.68334e-05
3.9352e-05
3.23338e-05
3.25226e-05
3.00887e-05
7.90117e-05
7.91159e-05
7.61189e-05
7.28153e-05
7.06073e-05
6.04824e-05
4.33704e-05
4.30887e-05
3.71353e-05
3.13463e-05
0.000101108
9.31779e-05
8.22486e-05
7.47405e-05
6.90768e-05
5.76138e-05
4.77848e-05
5.93471e-05
4.07443e-05
3.24038e-05
0.000103839
9.0419e-05
7.81023e-05
7.05666e-05
6.46264e-05
5.60337e-05
5.58398e-05
8.58816e-05
4.37944e-05
3.26669e-05
9.89498e-05
8.32483e-05
7.14721e-05
6.59813e-05
6.19622e-05
5.75919e-05
6.71576e-05
0.000124579
4.63261e-05
3.24375e-05
9.27233e-05
7.66215e-05
6.73434e-05
6.46857e-05
6.34282e-05
6.28943e-05
7.72743e-05
0.000153592
4.80775e-05
3.1978e-05
8.82673e-05
7.54767e-05
7.06416e-05
7.11981e-05
7.26383e-05
7.51211e-05
8.90483e-05
0.000143275
4.67622e-05
3.09839e-05
8.07732e-05
7.76884e-05
8.08153e-05
8.54009e-05
8.89211e-05
9.34798e-05
9.73956e-05
0.000111846
4.21889e-05
2.44348e-05
2.79086e-05
2.69907e-05
2.66742e-05
2.78372e-05
3.04921e-05
3.39508e-05
3.73868e-05
3.8391e-05
3.63339e-05
)
;

boundaryField
{
    movingWall
    {
        type            nutWallFunction;
        Cmu             0.09;
        kappa           0.41;
        E               9.8;
        value           uniform 0;
    }
    left
    {
        type            nutWallFunction;
        Cmu             0.09;
        kappa           0.41;
        E               9.8;
        value           uniform 0;
    }
    right
    {
        type            nutWallFunction;
        Cmu             0.09;
        kappa           0.41;
        E               9.8;
        value           uniform 0;
    }
    bottom
    {
        type            nutWallFunction;
        Cmu             0.09;
        kappa           0.41;
        E               9.8;
        value           uniform 0;
    }
    frontAndBack
    {
        type            empty;
    }
}


// ************************************************************************* //
