/*--------------------------------*- C++ -*----------------------------------*\
| =========                 |                                                 |
| \\      /  F ield         | OpenFOAM Extend Project: Open source CFD        |
|  \\    /   O peration     | Version:  1.6-ext                               |
|   \\  /    A nd           | Web:      www.extend-project.de                 |
|    \\/     M anipulation  |                                                 |
\*---------------------------------------------------------------------------*/
FoamFile
{
    version     2.0;
    format      ascii;
    class       volVectorField;
    location    "1000";
    object      U;
}
// * * * * * * * * * * * * * * * * * * * * * * * * * * * * * * * * * * * * * //

dimensions      [0 1 -1 0 0 0 0];

internalField   nonuniform List<vector> 
100
(
(0.0684511 -0.100901 0)
(0.124075 -0.0685791 -6.82079e-24)
(0.149093 -0.0547912 0)
(0.149351 -0.0429372 0)
(0.135647 -0.0307029 1.70198e-24)
(0.113845 -0.0185293 1.30254e-24)
(0.0847443 -0.00581932 -8.64734e-25)
(0.0518766 0.0132241 3.97705e-24)
(-0.0181282 0.0425963 0)
(-0.0383572 -0.000957308 0)
(0.0299116 -0.143872 -6.14519e-24)
(0.0750475 -0.0665056 -2.09214e-23)
(0.0878661 -0.0314856 -3.33117e-40)
(0.0877118 -0.00822959 4.39946e-24)
(0.0766652 0.00939467 0)
(0.057614 0.0244382 2.92668e-24)
(0.030407 0.0426059 -6.71065e-24)
(-0.0145833 0.0750252 6.19152e-24)
(-0.0522706 0.0708966 1.31273e-23)
(-0.0403247 -0.0437141 -6.46649e-24)
(0.00823977 -0.181299 1.09484e-24)
(0.0374815 -0.0795993 -9.07233e-24)
(0.0366301 -0.0305204 -8.04681e-24)
(0.0367196 0.00219369 3.20975e-24)
(0.0295945 0.0290023 2.75589e-24)
(0.0156886 0.0536969 0)
(-0.0109697 0.088422 -4.05126e-24)
(-0.0408353 0.112984 7.13687e-24)
(-0.0641303 0.0821633 3.33409e-23)
(-0.0274713 -0.0998772 -5.01533e-24)
(-0.00520156 -0.191094 0)
(0.00784459 -0.0713095 -5.57104e-25)
(-0.00205742 -0.014522 -1.22923e-24)
(-0.000164585 0.0194539 0)
(-0.00465798 0.0489818 8.66826e-25)
(-0.0143968 0.0807352 1.30396e-24)
(-0.0304124 0.1161 0)
(-0.0453594 0.130593 1.26885e-23)
(-0.0620001 0.0776101 3.34504e-23)
(-0.00908341 -0.151812 0)
(-0.0136694 -0.182875 0)
(-0.0142806 -0.0597488 6.12457e-24)
(-0.0255059 -0.00688078 2.30359e-24)
(-0.0260159 0.0271907 0)
(-0.0277346 0.0592729 0)
(-0.0304072 0.092972 -8.41351e-25)
(-0.0349261 0.126724 9.73168e-25)
(-0.036309 0.133227 9.24161e-24)
(-0.0505287 0.0644453 2.7577e-23)
(0.00936475 -0.191849 -2.58748e-24)
(-0.0200011 -0.163641 0)
(-0.0289331 -0.0449204 8.98656e-24)
(-0.0426379 0.00311857 6.63135e-24)
(-0.0449554 0.0335102 0)
(-0.0431483 0.0626098 0)
(-0.037858 0.0933472 0)
(-0.0313401 0.123423 -9.02953e-25)
(-0.0204744 0.126197 4.25182e-24)
(-0.0321262 0.0524568 1.64247e-23)
(0.0259827 -0.215734 -8.66788e-24)
(-0.0256458 -0.134946 0)
(-0.0414402 -0.0247467 9.47524e-24)
(-0.0582259 0.0151637 5.88098e-24)
(-0.0604505 0.0370991 0)
(-0.0547245 0.0591832 0)
(-0.0419725 0.0835675 0)
(-0.0258493 0.108587 0)
(-0.002748 0.11213 -1.42973e-24)
(-0.00722229 0.0348599 4.47013e-24)
(0.0395514 -0.217297 0)
(-0.0312052 -0.0956846 0)
(-0.0546175 0.000631115 6.26236e-24)
(-0.0721773 0.0284567 2.14646e-24)
(-0.0732884 0.0378687 0)
(-0.0639284 0.050056 0)
(-0.0451726 0.0657969 0)
(-0.0220544 0.0835928 0)
(0.0143423 0.0860263 -5.49887e-24)
(0.0137089 0.0223497 -2.98637e-24)
(0.0543485 -0.199809 0)
(-0.0349462 -0.0515617 0)
(-0.0674807 0.0280383 1.15077e-25)
(-0.0740489 0.0342961 -8.82673e-25)
(-0.0733948 0.0316714 0)
(-0.0617742 0.0332354 0)
(-0.0404494 0.0390235 0)
(-0.0134895 0.0473133 0)
(0.0331724 0.0504074 -8.36539e-24)
(0.0339416 0.0107193 -6.29517e-24)
(0.0788542 -0.166598 0)
(0.00144508 0.00686856 0)
(-0.0380207 0.033224 -2.6013e-24)
(-0.0032448 0.0174856 -2.69738e-24)
(0.00989537 0.0053386 0)
(0.018145 8.98321e-05 0)
(0.0301204 -0.000233044 0)
(0.0484117 0.0012285 0)
(0.0861309 0.00375425 -4.53375e-24)
(0.118198 -0.0136047 -2.80989e-24)
(0.128563 -0.114766 0)
)
;

boundaryField
{
    movingWall
    {
        type            fixedValue;
        value           uniform (0.96 -0.24 0);
    }
    left
    {
        type            fixedValue;
        value           uniform (0 0 0);
    }
    right
    {
        type            fixedValue;
        value           uniform (0 0 0);
    }
    bottom
    {
        type            fixedValue;
        value           uniform (0 0 0);
    }
    frontAndBack
    {
        type            empty;
    }
}


// ************************************************************************* //
