/*--------------------------------*- C++ -*----------------------------------*\
| =========                 |                                                 |
| \\      /  F ield         | OpenFOAM: The Open Source CFD Toolbox           |
|  \\    /   O peration     | Version:  2.1.x                                 |
|   \\  /    A nd           | Web:      www.OpenFOAM.org                      |
|    \\/     M anipulation  |                                                 |
\*---------------------------------------------------------------------------*/
FoamFile
{
    version     2.0;
    format      ascii;
    class       volScalarField;
    location    "0";
    object      facesAgglomeration;
}
// * * * * * * * * * * * * * * * * * * * * * * * * * * * * * * * * * * * * * //

dimensions      [0 0 0 0 0 0 0];

internalField   uniform 0;

boundaryField
{
    movingWall
    {
        type            calculated;
        value           nonuniform List<scalar> 10(0 0 1 1 2 2 3 3 4 4);
    }
    left
    {
        type            calculated;
        value           nonuniform List<scalar> 10(0 0 1 1 2 2 3 3 4 4);
    }
    right
    {
        type            calculated;
        value           nonuniform List<scalar> 10(0 0 1 1 2 2 3 3 4 4);
    }
    bottom
    {
        type            calculated;
        value           nonuniform List<scalar> 10(0 0 1 1 2 2 3 3 4 4);
    }
    frontAndBack
    {
        type            empty;
    }
}


// ************************************************************************* //
