/*--------------------------------*- C++ -*----------------------------------*\
| =========                 |                                                 |
| \\      /  F ield         | OpenFOAM Extend Project: Open source CFD        |
|  \\    /   O peration     | Version:  1.6-ext                               |
|   \\  /    A nd           | Web:      www.extend-project.de                 |
|    \\/     M anipulation  |                                                 |
\*---------------------------------------------------------------------------*/
FoamFile
{
    version     2.0;
    format      ascii;
    class       volScalarField;
    location    "1000";
    object      p_rgh;
}
// * * * * * * * * * * * * * * * * * * * * * * * * * * * * * * * * * * * * * //

dimensions      [0 2 -2 0 0 0 0];

internalField   nonuniform List<scalar> 
100
(
7.16555e-16
-0.00242015
-0.00454106
-0.00556275
-0.00601526
-0.00623504
-0.00631249
-0.0062592
-0.00618702
-0.00615382
-0.00188575
-0.00488653
-0.00609333
-0.00652546
-0.00661017
-0.0065605
-0.00646064
-0.00632155
-0.00637727
-0.00736606
-0.0027818
-0.00727787
-0.00801495
-0.00797133
-0.00762884
-0.00727772
-0.00699919
-0.00681011
-0.00711402
-0.00963882
-0.00299685
-0.00921227
-0.00959678
-0.00920921
-0.00873124
-0.00836439
-0.00816329
-0.00819398
-0.00889846
-0.0117529
-0.00251819
-0.0101805
-0.0107694
-0.0106913
-0.0106702
-0.0107846
-0.011064
-0.0114183
-0.0117934
-0.0131273
-0.00143962
-0.0111926
-0.0127092
-0.0133655
-0.013977
-0.0147641
-0.0155871
-0.0160926
-0.0159511
-0.0161098
-0.00034361
-0.0123179
-0.0142377
-0.015142
-0.0160327
-0.016996
-0.017768
-0.0177956
-0.0168637
-0.0160741
0.000717178
-0.0124471
-0.0146798
-0.0156208
-0.0164286
-0.0172323
-0.0176961
-0.0168525
-0.0160259
-0.0153296
0.0024885
-0.0113704
-0.0138588
-0.0148378
-0.0156738
-0.0165612
-0.0171637
-0.0158472
-0.0138388
-0.0112155
0.00833295
-0.000552939
-0.00500134
-0.00777109
-0.00977765
-0.0115507
-0.0128869
-0.012315
-0.00962577
-0.00435904
)
;

boundaryField
{
    movingWall
    {
        type            buoyantPressure;
        gradient        nonuniform List<scalar> 10(-3.67173 -2.10496 -1.41944 -1.0344 -0.789726 -0.630189 -0.552187 -0.526657 -0.494536 -0.084783);
        rho             rhok;
        value           nonuniform List<scalar> 10(-0.0100257 -0.0110778 -0.0120986 -0.0129431 -0.0137263 -0.0147016 -0.0156478 -0.0149483 -0.0120984 -0.00478295);
    }
    left
    {
        type            buoyantPressure;
        gradient        nonuniform List<scalar> 10(0.402056 1.26112 2.30266 3.49261 4.81262 6.18419 7.53057 8.75353 9.61232 9.50667);
        rho             rhok;
        value           nonuniform List<scalar> 10(0.00201028 0.00441987 0.00873149 0.0144662 0.0215449 0.0294813 0.0373093 0.0444848 0.0505501 0.0558663);
    }
    right
    {
        type            buoyantPressure;
        gradient        nonuniform List<scalar> 10(-0.607114 -1.79455 -2.85492 -3.74733 -4.42133 -4.79408 -5.9714 -7.30822 -8.68254 -10.1346);
        rho             rhok;
        value           nonuniform List<scalar> 10(-0.00918939 -0.0163388 -0.0239134 -0.0304896 -0.035234 -0.0400802 -0.0459311 -0.0518707 -0.0546282 -0.0550319);
    }
    bottom
    {
        type            buoyantPressure;
        gradient        uniform 0;
        rho             rhok;
        value           nonuniform List<scalar> 10(7.16555e-16 -0.00242015 -0.00454106 -0.00556275 -0.00601526 -0.00623504 -0.00631249 -0.0062592 -0.00618702 -0.00615382);
    }
    frontAndBack
    {
        type            empty;
    }
}


// ************************************************************************* //
