/*--------------------------------*- C++ -*----------------------------------*\
| =========                 |                                                 |
| \\      /  F ield         | OpenFOAM Extend Project: Open source CFD        |
|  \\    /   O peration     | Version:  1.6-ext                               |
|   \\  /    A nd           | Web:      www.extend-project.de                 |
|    \\/     M anipulation  |                                                 |
\*---------------------------------------------------------------------------*/
FoamFile
{
    version     2.0;
    format      ascii;
    class       volScalarField;
    location    "1000";
    object      Qr;
}
// * * * * * * * * * * * * * * * * * * * * * * * * * * * * * * * * * * * * * //

dimensions      [1 0 -3 0 0 0 0];

internalField   uniform 0;

boundaryField
{
    movingWall
    {
        type            calculated;
        value           nonuniform List<scalar> 10(198.065 117.911 81.6609 61.1523 47.8925 38.9133 34.0696 31.8532 29.1383 4.82535);
    }
    left
    {
        type            calculated;
        value           nonuniform List<scalar> 10(1131.35 1131.63 1131.85 1132.02 1132.14 1132.21 1132.23 1132.2 1132.1 1131.93);
    }
    right
    {
        type            calculated;
        value           nonuniform List<scalar> 10(-1331.99 -1334.22 -1340.94 -1349.79 -1360.69 -1374.24 -1368.73 -1362.04 -1356.34 -1350.88);
    }
    bottom
    {
        type            calculated;
        value           nonuniform List<scalar> 10(247.101 210.222 189.475 174.432 161.598 149.981 138.931 127.64 112.452 52.8742);
    }
    frontAndBack
    {
        type            empty;
    }
}


// ************************************************************************* //
