/*--------------------------------*- C++ -*----------------------------------*\
| =========                 |                                                 |
| \\      /  F ield         | OpenFOAM Extend Project: Open source CFD        |
|  \\    /   O peration     | Version:  1.6-ext                               |
|   \\  /    A nd           | Web:      www.extend-project.de                 |
|    \\/     M anipulation  |                                                 |
\*---------------------------------------------------------------------------*/
FoamFile
{
    version     2.0;
    format      ascii;
    class       volVectorField;
    location    "1000";
    object      U;
}
// * * * * * * * * * * * * * * * * * * * * * * * * * * * * * * * * * * * * * //

dimensions      [0 1 -1 0 0 0 0];

internalField   nonuniform List<vector> 
100
(
(0.0301608 -0.0376473 0)
(0.0575753 -0.0180152 0)
(0.0704581 -0.0088893 0)
(0.0734155 -0.00397244 0)
(0.0715193 -0.000808129 0)
(0.067315 0.00137419 0)
(0.0612482 0.00309248 0)
(0.0535661 0.00485045 0)
(0.0416556 0.00841944 0)
(0.026784 0.0206625 0)
(0.0127322 -0.0627855 0)
(0.0341449 -0.0245525 0)
(0.0400939 -0.00802194 0)
(0.0419765 0.000420629 0)
(0.0417527 0.00502045 0)
(0.0402173 0.00777355 0)
(0.0372698 0.0101266 0)
(0.0331647 0.0133853 0)
(0.0241638 0.0210117 0)
(0.0168032 0.0429435 0)
(0.00147334 -0.0806983 0)
(0.0129657 -0.032939 0)
(0.011952 -0.0123721 0)
(0.0131982 -0.00282787 0)
(0.0143932 0.00264872 0)
(0.0145863 0.00692324 0)
(0.0134906 0.0111023 0)
(0.012187 0.0167808 0)
(0.00656749 0.028354 0)
(0.00820668 0.0580834 0)
(-0.00561379 -0.0820451 0)
(-0.00375082 -0.0307298 0)
(-0.00758732 -0.0113725 0)
(-0.00700174 -0.00307143 0)
(-0.00807779 0.00261871 0)
(-0.00986027 0.00776659 0)
(-0.012273 0.012536 0)
(-0.0137592 0.018407 0)
(-0.0152009 0.028927 0)
(-0.00226944 0.0560318 0)
(-0.0104779 -0.0731812 0)
(-0.0162088 -0.0266541 0)
(-0.0237433 -0.00979486 0)
(-0.0293887 -0.000570245 0)
(-0.0355621 0.00643181 0)
(-0.0412056 0.0119708 0)
(-0.0460701 0.0164055 0)
(-0.0478443 0.0204674 0)
(-0.0422337 0.0267867 0)
(-0.01951 0.0427082 0)
(-0.0145241 -0.0563098 0)
(-0.0276714 -0.0141611 0)
(-0.0426545 0.00110103 0)
(-0.0527988 0.0088227 0)
(-0.0613458 0.0143738 0)
(-0.0686668 0.0182624 0)
(-0.073637 0.019107 0)
(-0.0730194 0.0154546 0)
(-0.0608474 0.00623572 0)
(-0.0304691 -0.0134211 0)
(-0.0177065 -0.0335814 0)
(-0.0329262 0.00364733 0)
(-0.0470963 0.0132952 0)
(-0.0560537 0.0179523 0)
(-0.063066 0.02174 0)
(-0.0682867 0.0231959 0)
(-0.0707494 0.0191215 0)
(-0.0669078 0.0056382 0)
(-0.0519292 -0.0192612 0)
(-0.0120641 -0.0599228 0)
(-0.0208745 -0.00796924 0)
(-0.0313686 0.0195571 0)
(-0.0385754 0.0233447 0)
(-0.0416012 0.0246732 0)
(-0.0426893 0.0260795 0)
(-0.0426424 0.0250428 0)
(-0.0422809 0.0168719 0)
(-0.0352137 -0.00575055 0)
(-0.0320164 -0.0391285 0)
(0.00888972 -0.0863494 0)
(-0.0231843 0.0120997 0)
(-0.0279045 0.0187966 0)
(-0.023866 0.0195454 0)
(-0.0174165 0.019683 0)
(-0.0098932 0.0202913 0)
(-0.000504151 0.0198503 0)
(0.00374779 0.01161 0)
(0.0195207 -0.0118463 0)
(0.00368023 -0.0441549 0)
(0.0336331 -0.0890057 0)
(0.0350593 0.046711 0)
(0.0385024 0.0272272 0)
(0.059327 0.0198492 0)
(0.0771384 0.0164481 0)
(0.0930605 0.0144448 0)
(0.108398 0.0127449 0)
(0.120812 0.00907906 0)
(0.124949 0.00171414 0)
(0.0989598 -0.0140652 0)
(0.0803195 -0.0594088 0)
)
;

boundaryField
{
    movingWall
    {
        type            fixedValue;
        value           uniform (1 0 0);
    }
    left
    {
        type            fixedValue;
        value           uniform (0 0 0);
    }
    right
    {
        type            fixedValue;
        value           uniform (0 0 0);
    }
    bottom
    {
        type            fixedValue;
        value           uniform (0 0 0);
    }
    frontAndBack
    {
        type            empty;
    }
}


// ************************************************************************* //
