/*--------------------------------*- C++ -*----------------------------------*\
| =========                 |                                                 |
| \\      /  F ield         | OpenFOAM Extend Project: Open source CFD        |
|  \\    /   O peration     | Version:  1.6-ext                               |
|   \\  /    A nd           | Web:      www.extend-project.de                 |
|    \\/     M anipulation  |                                                 |
\*---------------------------------------------------------------------------*/
FoamFile
{
    version     2.0;
    format      ascii;
    class       volScalarField;
    location    "2000";
    object      k;
}
// * * * * * * * * * * * * * * * * * * * * * * * * * * * * * * * * * * * * * //

dimensions      [0 2 -2 0 0 0 0];

internalField   nonuniform List<scalar> 
26307
(
0.00328908
0.000376939
0.000847713
0.000248701
0.000877755
0.00080723
0.000146149
0.00580626
0.000216851
0.00505128
0.0019537
0.00212007
0.000248635
0.000527226
1.18372e-05
2.52087e-05
0.0013355
0.000654792
0.000306216
0.00732252
0.00253154
0.00208311
0.000327655
0.0010687
1.76895e-05
0.0043549
0.00443908
7.55424e-07
0.000739759
0.00262521
8.38273e-06
0.00600177
2.20185e-06
0.00113833
0.00142308
0.00106139
0.00375225
0.000418616
0.000295418
0.00732539
4.94707e-05
0.000372162
0.00228373
1.82908e-05
0.000452503
0.000102263
0.00161815
0.0040618
0.0068593
0.00018294
3.2098e-05
0.000165145
0.00365134
0.000961847
0.00073181
0.00164302
0.000968677
0.000251891
0.00431101
0.00118673
8.60175e-05
2.08984e-05
0.000602628
0.00122566
0.00767237
2.26946e-06
0.00364165
0.000278645
0.00100722
0.0044498
0.0076558
1.74721e-05
0.00366844
0.000150643
9.5484e-05
0.00480825
0.00108636
0.000312258
0.00260892
0.000261414
3.10644e-07
0.00316812
4.85144e-05
0.00865618
0.00272279
0.0039239
0.00181797
0.00189238
0.00391038
0.000235341
0.0036738
1.24736e-05
0.000225212
0.000218764
0.000956419
0.00630716
3.38631e-06
1.87706e-05
0.00601856
0.00187202
2.27983e-05
0.000166035
0.002999
0.00343025
0.000852543
5.65725e-05
8.71463e-05
0.00224636
0.00331147
0.00139304
0.00659027
6.09618e-05
0.00118864
0.0069962
0.000230796
1.99709e-05
6.50504e-05
0.000677208
0.00534373
0.00325184
0.00427907
0.00101955
3.23669e-05
3.48793e-05
0.000179477
7.91086e-05
0.00840231
0.000112158
1.34763e-05
3.02131e-06
4.54472e-06
8.50082e-07
0.00766772
0.000462127
0.002648
0.00361639
0.005886
0.00363772
0.00591181
0.00055673
0.00321694
0.00151786
0.00132191
7.65719e-06
0.00237312
0.00929208
0.0061483
0.000381075
6.29443e-05
0.00107781
0.00609048
0.000215701
0.000497844
0.00533565
0.00710067
0.00687617
0.000178342
0.000115559
0.000408282
6.35123e-06
0.00118639
0.00563735
0.00293203
0.00547845
0.0038095
0.00922039
0.00669747
0.00953703
0.000131996
0.00807584
0.00531173
0.00540946
0.00365604
0.00407597
8.88127e-05
0.000194769
6.11242e-06
0.00358258
0.00476124
0.00675965
0.0013268
0.000272111
0.00531577
0.000113237
0.000571498
0.00143876
0.000565775
1.16851e-05
0.000209592
0.00099862
0.000621073
7.64234e-06
0.00030189
0.00370639
0.0013161
0.000925528
1.44657e-06
0.0081018
0.000246522
0.00364795
1.08526e-05
0.00287574
0.000539233
4.53724e-05
0.000487781
0.00227295
0.000273001
9.76444e-06
0.00453849
3.15511e-05
0.00156043
0.00624996
0.00130639
1.87178e-05
0.000290329
0.00456873
0.00154127
0.00426412
0.00651083
0.000124516
0.00597653
0.00016843
7.99594e-06
0.00464215
9.60775e-05
0.00290928
0.000820647
0.00387101
0.00757172
0.000305962
0.00289239
0.000931645
0.000904213
0.000637221
0.00226104
0.00063456
0.00351257
0.000266041
2.90571e-05
0.00206124
8.96752e-08
7.2476e-06
0.000233662
0.00242398
0.00572794
0.00130197
0.00977407
0.0059526
0.00600519
0.00264048
0.00441061
0.00440232
6.2474e-07
4.01324e-06
2.38768e-05
5.58902e-06
1.38749e-05
7.14937e-05
4.2669e-05
0.0035757
0.00308307
8.73861e-07
0.000196355
0.000206914
0.00449058
0.000225182
0.00294008
0.0046297
0.00298525
0.00354014
0.00530287
0.00532703
0.00907305
7.66482e-05
0.00449816
5.2363e-07
0.000903503
0.000210689
1.62968e-05
0.00041297
0.00218011
0.00372479
0.0088688
0.000136622
9.17906e-05
0.00482431
0.00253327
2.93955e-06
3.318e-05
0.00618941
0.000280082
7.66809e-06
0.00320249
0.00416316
0.00435784
0.00390639
0.000394179
0.000537622
0.00384545
6.89975e-07
0.00419701
0.000869879
0.00514889
0.00448
7.89177e-05
1.30174e-05
6.19134e-05
0.000640609
0.00195651
3.87451e-06
0.00358241
8.09986e-07
0.00178256
0.00055245
4.44148e-05
5.94659e-05
3.13204e-05
0.00254535
0.00436417
0.000253717
0.000540853
0.00474972
0.00012901
0.00325181
0.000311541
1.12894e-05
2.91289e-05
0.00828546
0.00371004
0.0066119
0.00370361
1.17428e-05
1.03572e-05
0.00395612
0.0094291
1.90842e-05
0.00355618
0.00281189
0.00472167
0.00534283
0.000117582
0.000724602
0.00317075
0.00363656
0.000117175
0.005554
0.00498602
0.00548877
0.00489867
0.00412647
0.00381772
0.000466058
0.000689764
0.000227272
0.00471648
0.00453996
0.000338829
0.000294128
0.000865657
0.00237048
0.0021908
0.00119963
0.00411554
5.27816e-05
6.12431e-05
4.65176e-05
0.00161085
0.00371716
0.000344062
0.00442716
0.00491099
0.00597929
0.00132872
0.00608155
0.00415506
0.0043841
0.00318241
0.00401792
0.00845174
0.000210586
0.00710636
0.00257905
0.000133905
0.000308763
3.95894e-05
0.00615052
0.00602638
0.00437283
0.00404145
0.00341527
0.0040418
0.00382322
0.000923992
0.00116506
0.0073758
0.0048352
1.5313e-05
0.000436515
0.000464948
4.10756e-06
0.000937865
9.45485e-07
0.000262343
0.00209389
0.000585963
0.00319909
0.00247185
4.30626e-06
0.00408541
8.21785e-05
6.72074e-05
0.000551362
0.00351667
0.00404534
0.000162697
0.000588786
5.02272e-05
0.000202374
5.6151e-05
0.00933827
0.000111895
2.5103e-05
5.18957e-06
4.78603e-05
0.00777105
0.00362065
0.00010762
0.000175635
0.0032276
1.72761e-05
0.00255635
0.00166646
0.00632159
0.00429095
3.01917e-05
0.00625869
3.23386e-05
0.00299332
0.00385802
0.0038883
0.000249873
0.00386644
4.50691e-05
0.00087524
0.00419828
0.000129292
0.00107688
0.00356917
0.000846028
0.00267127
0.00609486
1.59055e-06
0.00952553
0.000909414
0.00316811
0.00326708
0.00887366
0.00155142
0.000822133
1.24682e-05
0.00151151
1.71093e-06
5.90428e-05
0.00195146
0.00214177
0.00456332
2.53535e-05
0.000100068
0.0001673
0.000284558
0.00272
0.000570255
0.00376999
0.00472298
0.00293291
0.00280946
0.00303164
0.00160533
8.5727e-05
4.83169e-05
0.00561958
0.000207403
0.000225684
0.00056312
0.000803158
0.00214546
0.003866
1.22043e-05
0.00630843
0.00207754
0.00612124
0.00348884
0.00710046
9.72795e-05
0.000149727
0.00890916
0.0049588
0.00340416
0.000329328
3.12422e-06
0.00298063
0.00788606
0.00589746
2.68993e-08
0.00471838
0.00750486
0.00351585
0.00150343
0.00758169
0.0031218
7.21229e-07
1.0683e-07
4.21675e-06
2.79852e-06
0.00404828
0.000194476
1.1176e-05
0.00633249
0.00746295
0.000517483
1.05586e-05
0.000794745
0.00402633
0.0001886
0.000369078
0.000228501
8.63582e-05
0.0044707
0.0068595
0.000243905
0.00267144
0.0039819
0.00702574
0.00166389
1.92349e-06
0.00434329
7.07012e-05
0.000456922
0.0063747
2.44477e-05
0.00628792
0.0039338
0.00383303
0.00538374
0.00136682
0.00500637
0.000171563
0.00247368
7.68384e-05
0.0073701
1.44545e-05
0.00382662
6.86004e-05
0.000302865
7.95139e-05
0.00363643
0.00269897
0.00107561
0.00142744
9.06652e-06
0.00172863
0.00192195
0.00791983
0.000583141
0.0012213
0.00485308
1.85262e-05
0.000647834
0.00163163
0.00815027
2.77427e-06
2.57141e-05
0.00034718
0.000530244
1.43221e-05
4.85176e-05
1.00734e-06
0.00495611
0.00374101
0.000242178
0.00667485
0.00324662
0.000159897
7.22971e-06
6.77184e-06
0.0042166
0.0042342
0.00588404
9.90749e-05
2.04893e-05
0.000225693
0.00677111
3.08603e-05
2.16579e-05
0.0011776
0.00474342
0.00851119
0.00929361
6.23979e-06
2.17053e-05
0.00529454
0.00291843
0.00627625
9.43609e-05
0.0035319
7.0732e-05
5.93038e-06
3.72676e-06
7.31126e-07
4.74206e-07
2.42118e-08
1.18522e-07
0.00392496
0.00280063
0.00744496
0.00868612
0.00837126
0.00337503
0.00169194
0.000164357
0.00403185
0.00756873
0.000159813
0.00491832
0.00706426
0.00379632
0.00886555
0.00552351
0.000106605
0.000147243
0.00250527
0.00529466
2.21231e-07
0.00546688
0.00365844
1.88519e-06
0.00344937
0.00217228
0.0024141
0.000275179
0.00448466
0.00157542
0.00401461
0.000160254
0.00323057
0.00383672
0.00884323
0.00345989
0.00625349
0.000198294
0.00329333
0.00959955
0.000225841
0.000184028
0.0026879
0.0051624
0.00336826
1.48845e-05
0.00295987
1.09262e-05
0.00331734
2.07701e-05
0.00328414
0.000150859
0.00581328
0.0060284
0.00137541
0.000308665
1.33132e-05
0.0037218
0.000216971
0.000209308
0.000144753
9.57794e-06
0.00101434
6.52856e-05
0.000643468
0.0075608
0.00122021
0.00410024
0.00722434
0.00587693
3.53318e-06
9.84896e-05
0.000930461
0.000197323
4.42125e-06
0.00128448
0.00406899
0.00583769
0.00475003
2.5354e-06
0.00469723
0.000293001
0.00159178
0.000333318
2.29214e-05
2.29236e-06
0.00219694
2.1891e-05
0.00620791
3.16328e-05
0.00839369
0.000124471
2.0374e-08
0.000168593
0.00554892
0.00831677
0.00511681
0.000322797
0.00692659
0.00465125
0.0076814
0.000226251
0.00121561
0.00505556
0.00252691
0.00394396
0.00448417
0.000267727
0.0078222
0.00113965
0.00753497
0.00256507
0.00752103
4.19452e-05
0.00113723
0.00966948
0.00662152
7.41817e-07
0.00263398
0.000523107
0.00271371
0.00419266
0.00320905
0.00280435
0.00357763
0.00180962
0.00253588
0.000563401
0.00443333
5.52236e-05
0.00716292
0.0027235
0.00293741
0.0037658
0.00285912
0.000745634
0.000560059
0.000951931
1.08234e-06
0.00414524
0.00154839
0.0091978
0.00609819
0.000590656
0.000453839
0.00210885
0.00770962
0.000215843
0.00491635
0.00577438
4.58334e-09
5.07425e-05
3.35956e-05
0.000497324
0.00952556
0.0039206
0.00471744
0.00611433
0.0042161
0.0090468
0.000552325
0.000631392
0.000287344
0.0018742
0.000542311
0.001863
0.00187414
0.00705391
2.03772e-05
0.000157023
2.09086e-05
0.00231848
1.41058e-06
9.17041e-05
3.99885e-06
7.7319e-05
0.0080012
0.00297904
0.000222741
2.72297e-05
0.00762366
0.000201576
0.00493366
0.000251729
0.00174256
0.00740347
0.00198238
0.000404906
0.00362051
0.0023926
0.00253055
0.00745848
0.00949874
3.03034e-05
0.00661543
7.81995e-05
0.00162035
0.00260116
8.35619e-05
1.81877e-05
0.00482954
0.00204962
0.0074864
0.00352977
0.00649273
0.00341682
0.00343915
0.000321116
0.00421501
0.00357602
0.000184583
4.33569e-05
5.67479e-05
0.00351309
0.000212421
3.80714e-07
2.33856e-05
0.00099205
0.000809037
0.00460653
0.000898123
0.00679231
0.00582934
0.00163738
1.43943e-07
0.00328577
0.00861449
1.90827e-05
1.44463e-05
0.00168398
0.00672641
3.58588e-05
0.00340855
0.00547562
0.0078338
0.000316729
0.00319505
0.00381459
7.30175e-05
0.00620306
0.0057213
0.00323197
0.000775141
0.00364075
0.00323212
0.000293874
0.000396237
4.48287e-05
4.76011e-05
0.00142895
0.00369682
2.87156e-08
3.35731e-05
0.00446928
0.0078792
3.58715e-05
0.00374492
1.41069e-06
4.28341e-07
8.96545e-08
2.58279e-06
6.20833e-06
5.45398e-05
3.04009e-05
1.14497e-05
0.00203902
0.00432935
0.00492639
1.38977e-08
0.0011881
1.79191e-05
0.00072187
0.00420787
0.00386067
0.00944616
0.000966685
8.72969e-05
3.70724e-05
0.000449009
1.86564e-05
0.00888996
7.32462e-05
6.14052e-05
0.00562726
0.00301591
0.000707036
0.00384738
9.32611e-05
0.00697267
0.0059317
2.27411e-05
0.0032917
0.00427661
0.000527415
0.000127588
0.00340144
0.00335943
0.00394391
0.000372197
6.1013e-06
0.00163868
0.000617295
1.04076e-06
2.59781e-05
7.15481e-05
0.000390792
0.00435618
0.00732074
2.04848e-05
0.00375597
0.00110497
0.000273281
0.00596103
0.00243227
0.00478713
1.2474e-05
0.00359237
6.5748e-05
0.000130363
0.000305528
0.00248374
0.00901756
0.00376215
0.00947811
1.9787e-05
0.000420411
0.000126229
0.00536627
0.000243259
0.00294764
0.00157703
0.000389063
0.000140603
5.21264e-05
0.00758823
2.37081e-06
0.000900322
0.00464364
0.00967036
6.04056e-06
0.00423363
0.0067789
0.00480816
0.00227456
8.04795e-06
0.00703229
0.00172744
0.00391519
0.0016282
0.000594658
0.00642315
0.00311674
0.00707793
0.000383227
0.00114631
0.00168396
0.00117115
5.67739e-05
7.73654e-05
1.60565e-05
0.0055809
0.00278839
0.000685376
8.79647e-05
1.74075e-05
7.26635e-06
3.73798e-06
5.75551e-07
2.19614e-05
0.00541226
0.00303953
0.00960192
0.00182559
0.000373814
7.81056e-08
1.46555e-06
0.00356036
0.000514003
0.00098591
0.00278086
0.000698276
0.00536199
2.07741e-05
0.00285323
0.00415887
0.00125411
0.00660746
0.00370332
0.00266908
0.00336415
0.00130618
0.000384761
0.00824762
6.45238e-08
0.000257415
0.00595032
4.98492e-06
0.000336553
0.000334024
0.00167085
0.00221071
0.000266062
1.48329e-07
0.000562854
0.00467667
2.11145e-09
0.00022924
5.90613e-05
0.000152718
0.000156591
0.00170953
0.00336108
0.00360838
1.98045e-05
8.94831e-06
0.00245334
0.00872322
0.00647792
0.00522119
8.94829e-05
0.00226477
0.00395155
5.26853e-07
7.83103e-05
0.00230363
0.000989498
0.00352273
0.000261086
0.00931794
0.00547912
0.000151977
0.00042107
0.000160005
0.00443882
0.000340379
0.00725866
0.00632408
1.86365e-06
0.000117298
0.000242257
0.000190958
0.00760657
0.00373797
0.00391131
0.0054423
0.00623808
0.00447742
0.00375754
3.23173e-08
0.00302464
1.91061e-05
0.00336715
8.88139e-06
0.00655514
0.000114485
0.00578092
0.00732569
0.000143473
0.00574194
0.00558723
0.00329046
0.00511596
0.000252789
0.00026193
0.00437653
2.26463e-08
0.000308463
6.55447e-05
0.00633579
8.12776e-06
0.000243735
3.28375e-07
0.00955374
0.0020326
0.000402025
0.00012972
0.000200254
9.73981e-06
1.42164e-05
0.00397053
0.0076709
4.20781e-05
0.00363275
0.000416269
0.00826758
0.000238469
1.70349e-05
0.00528593
0.00698863
0.0073143
0.00933189
0.00020506
0.00324481
0.000382717
0.00163481
0.00194572
0.00107508
0.00110724
0.00244203
0.001497
0.00230624
0.00109002
0.00368257
0.00711397
0.00230052
0.00756464
0.000372728
0.000145918
0.000289984
0.00028454
0.00226709
0.000422768
0.00428273
0.000834266
0.00284547
0.00366061
0.000534417
0.000171161
0.00383884
8.00333e-05
2.07029e-05
0.00341146
1.00517e-05
0.00531984
0.0011909
0.00174517
0.000243937
0.000703242
0.000720023
0.0077423
6.97418e-06
0.00339023
0.00798979
8.33219e-05
0.00232243
0.00129821
0.00195143
0.00264281
1.22418e-05
0.00204126
0.00639993
1.52423e-05
0.0029843
0.00203267
0.00116716
0.00159949
0.00616931
0.00172041
0.000713377
2.01008e-05
0.00205055
0.00886788
0.000379087
4.05865e-05
0.0069444
0.00239792
0.00400403
0.00595431
0.00332008
0.0033984
0.000737491
0.00276749
4.14596e-05
0.000277548
0.00398502
0.00231904
0.000336401
0.000193171
0.00185842
0.0017328
8.27344e-05
0.00698183
0.00505224
0.00754726
0.00665983
0.00392968
0.00213119
0.00166998
0.00210602
0.00104782
0.0073679
0.0012103
0.00750993
9.82321e-05
7.01048e-09
0.000189416
0.00519689
0.00330508
0.0020855
0.000103532
0.00970611
0.00131599
0.00189027
0.00381609
0.00111517
0.000701914
0.000322681
0.00204549
0.00370197
0.00413145
1.72292e-05
0.000206103
0.00259439
0.00368687
0.00704181
1.41527e-06
6.08892e-06
3.45268e-05
2.46568e-06
1.18574e-05
6.65478e-05
6.81129e-05
0.000417446
0.000129229
3.84121e-05
0.0012213
0.00682528
0.00638283
0.00260287
0.00386037
0.000206675
0.000268135
0.000101009
0.000242244
1.8489e-05
0.00329937
0.00284031
0.000184938
0.00881282
0.000681528
0.00103241
0.0052347
6.43651e-05
6.72774e-05
0.00342207
0.00313548
0.000136764
0.00233942
2.71821e-05
0.000590619
0.000486747
0.000557618
0.000464664
0.00281465
0.000602335
3.56155e-07
0.00333663
0.00370326
0.000461372
0.00507919
0.00370507
0.00173552
8.91738e-05
0.00207973
0.00421676
0.000593917
0.000325497
0.00320738
0.000110825
0.00237785
0.00276177
0.00751589
1.81905e-05
0.000427329
0.000154736
0.000610692
3.46288e-05
0.000201835
7.20774e-05
0.000235561
0.00252969
0.00302532
0.00760117
0.00300928
5.87593e-06
0.00295696
8.38428e-06
0.00251249
0.00746298
0.00241653
0.00223066
0.00311323
0.00507643
0.00336991
0.00386578
6.70471e-05
0.00333319
0.00422401
0.00437256
0.00134494
0.0045288
0.00420716
0.00379875
0.00316402
0.000128451
0.00231814
0.000772567
0.00167386
0.000438676
0.000284077
0.00552477
1.14535e-05
0.000192807
0.000304516
0.000426161
0.000175926
0.000937966
0.000108936
0.000323017
8.34085e-05
0.00294947
0.00209331
8.64147e-07
0.00178391
0.00239363
0.00379375
0.00141867
0.00278423
0.00736601
3.56846e-06
2.39906e-05
1.67641e-06
0.0010215
0.0045416
0.00603154
3.6488e-05
0.0014386
0.00164204
1.3344e-05
0.000796098
0.00245013
0.00276949
0.000146794
0.00511245
6.88473e-07
0.00190186
0.00530881
1.48281e-06
1.85304e-08
0.00291246
0.00634457
0.0033442
0.00317675
0.00323056
2.45962e-06
0.00351079
1.6363e-05
0.00427125
1.02355e-05
0.000380967
0.00563975
9.98064e-05
0.00150073
0.00203171
0.0031674
0.000277014
0.00496849
0.000166438
1.48821e-07
8.74328e-05
0.00323756
0.000521575
0.00378228
0.00273282
0.00564761
0.00602102
0.00430351
1.95702e-05
0.000325741
0.00370074
3.47241e-05
0.00284837
0.00509811
0.000295563
1.56041e-05
0.00208366
0.000141288
0.00660082
0.000491089
0.00117374
0.00147827
1.69625e-05
0.000199663
0.00388287
0.00476831
0.00185665
3.73686e-06
0.00382116
0.000270482
8.98116e-05
0.0040184
1.00786e-05
0.0026621
3.20747e-06
0.00136771
0.000522241
0.000636095
0.00192831
4.34334e-06
0.00194516
0.00205869
0.000138256
0.00398732
0.00296154
7.76627e-06
0.000126688
1.87835e-05
0.00156368
0.00165977
0.00124748
0.0096074
0.000931662
0.00145347
0.00727905
0.00235578
0.00236394
3.03898e-06
0.000155789
0.00320519
0.000149744
0.000114447
0.00707007
0.000257159
3.77201e-06
0.00409463
5.95441e-07
0.00250105
0.00112936
0.00139203
0.00501307
0.00357247
3.68321e-06
0.00214689
2.16707e-05
3.40393e-05
0.0031196
0.00163957
0.00226871
0.00639262
0.00695331
0.0090942
0.000123793
0.00320122
0.000211942
7.25296e-05
0.00218092
3.74825e-05
0.000580797
0.0034953
0.00429573
0.00682144
4.43567e-05
8.62981e-05
1.99331e-05
0.00345735
0.00533104
0.000437821
1.62031e-05
0.00129508
0.00029392
2.05688e-09
0.00155406
0.00420651
0.000776236
0.000652314
0.00375501
0.000233828
0.00570997
0.00173235
0.000156692
2.0757e-05
0.000209558
9.62984e-05
0.000410248
0.0018919
6.58948e-05
0.000408743
0.00735912
0.002963
0.0032585
0.00232625
0.00260759
0.00044776
0.000151632
0.00243639
1.83364e-05
0.00641982
0.00219078
0.00304711
0.000242416
0.000609435
0.000243245
0.00100775
3.01226e-05
0.00050124
0.00161811
0.000800239
0.00367323
0.00473637
8.78145e-06
0.00304302
9.14799e-05
0.003581
9.99057e-05
0.0022902
0.000765773
0.00636769
3.66754e-05
0.00327715
0.00744672
1.60337e-05
2.13742e-05
4.91992e-05
0.00547406
0.00460033
0.000214279
0.00172636
1.02893e-05
0.00663959
0.000150942
0.00702789
0.000246359
0.0039432
0.0046859
0.00293964
0.00232021
0.00544716
0.00395298
0.00803211
0.000195454
0.00361858
0.00382586
5.32579e-06
0.00105059
0.00315182
1.53062e-05
1.27954e-05
0.00577249
0.00622191
2.70996e-05
4.87104e-06
0.00561624
0.00348308
0.00080025
0.00373738
0.000367722
0.00268949
1.79086e-05
3.46505e-05
0.00351832
0.00160437
0.00653465
0.00384667
8.09646e-06
0.000412557
0.000483178
0.000709438
0.00207342
0.00274135
0.00264959
0.00163796
0.00146954
0.000191696
2.85909e-05
0.000121515
5.02245e-06
0.000333343
0.000348892
0.000249818
0.000470194
0.000254251
0.000737978
0.00179994
0.00222268
0.000195042
0.000609455
0.00886387
0.000303719
0.00891929
0.00245073
0.000598729
0.000391872
0.00283491
0.00246516
0.000243915
0.000182373
0.000456939
0.000350771
0.00372552
0.00708617
0.00286672
0.00546838
0.00227737
0.0041937
0.00530752
0.000114548
0.0057895
0.00729118
0.000365446
0.00725899
0.00224212
0.00215373
9.58729e-07
0.00380111
0.000361112
0.00645012
0.000373012
0.00425242
0.00257501
0.0036502
0.00198929
0.0010648
0.00147014
0.00156454
6.02718e-05
5.86816e-06
0.00169113
2.7069e-05
0.00671271
0.00693562
1.76121e-05
0.00140602
0.000532099
0.00318711
0.000715824
4.83414e-06
0.000484305
0.0046173
0.00116207
0.000827039
0.00247443
0.000142038
4.59204e-05
3.18298e-05
0.00156957
0.00172388
0.000630036
0.00363916
6.1845e-06
0.0066562
0.000275272
0.00033341
0.000656236
1.32214e-07
0.00549835
0.000452545
0.00115297
0.00307105
0.00398104
0.000127483
0.00643511
0.00220337
0.00175263
0.00328373
4.08404e-05
6.42932e-05
0.00350927
7.08074e-06
0.00624121
0.00299707
0.00388179
0.00270498
0.00321854
0.00154257
0.00212865
5.15594e-06
3.82754e-05
0.00268754
0.00132303
0.00132228
5.7506e-05
2.44557e-05
0.00206845
0.00530933
0.000143565
0.00580876
0.000249365
0.00263792
0.00458702
0.00422234
0.00101859
0.00130576
0.00181414
1.25e-06
0.000298072
0.000137262
0.00012583
8.55527e-09
1.3714e-05
0.00333444
0.000344223
0.00252638
0.00455306
3.4229e-06
3.97305e-05
0.000182894
0.00398373
0.00141999
0.00155713
0.00886299
9.79241e-08
0.00294198
0.0017573
0.00508865
0.000292837
1.9702e-06
0.000241659
0.00249562
5.05614e-06
0.000509146
0.000922201
0.000313365
0.000101422
0.00151273
0.00607698
0.000539391
0.000569489
8.99316e-08
0.000298685
0.00753465
0.00029402
0.0051808
0.00024463
0.00183573
0.00220511
1.8784e-05
3.77627e-06
0.000180655
0.000756862
0.00347937
0.00017131
0.00815049
0.000431229
1.44311e-05
4.01913e-05
3.19548e-06
0.00567458
6.79662e-05
0.00019246
0.000125933
0.000147684
0.00829476
0.00605424
2.98422e-06
4.58673e-06
7.9161e-07
1.33779e-07
4.77109e-07
3.73429e-07
1.96597e-08
8.74133e-08
0.00959042
0.00322662
0.00343233
0.00751397
6.1071e-06
8.24666e-05
0.000508334
8.75637e-05
0.00246168
4.6574e-05
1.74567e-06
0.00244186
0.000192292
4.31058e-06
0.00866624
0.00115855
0.000201943
7.09025e-06
4.58736e-05
0.00260931
0.00107786
0.0078168
0.000275706
0.000204528
0.00241636
0.000270847
0.00307486
0.00555243
0.0018345
0.00610901
2.41298e-05
1.74185e-05
0.00446538
0.0019828
0.00448624
0.00411385
0.00229529
0.000465952
9.78135e-05
0.0041601
0.00665165
0.00397196
0.0013688
8.24389e-06
0.00270003
0.00474335
0.00242478
8.84152e-05
1.96641e-05
2.07815e-06
0.00119418
4.77085e-06
0.00540201
0.00380384
0.00323098
0.000422649
2.99189e-05
0.00105732
2.01914e-05
0.0031092
1.78352e-05
0.00305454
0.00602808
7.72464e-05
0.000210362
0.00484431
0.00019708
1.25971e-05
0.00206967
0.00321761
0.000147309
9.90633e-05
1.73838e-05
1.04982e-05
2.02606e-05
4.90741e-05
8.97718e-06
0.000140136
0.000233083
0.00353917
0.00020642
0.00524048
5.97901e-06
6.11762e-05
0.000295774
0.000821792
0.0022077
0.00794502
0.000132846
0.000948032
0.00136702
4.32558e-05
0.00701828
6.55599e-07
0.00426927
0.000773599
0.00110171
0.00747843
0.00186131
0.00231301
9.4908e-06
7.89731e-05
1.35037e-05
3.27641e-07
2.36376e-06
1.48703e-05
2.40452e-05
0.000116007
0.000553225
0.00665531
6.31223e-06
0.00440227
0.00323265
0.00401224
0.00286136
0.00283958
0.000271718
0.0093909
2.1522e-05
0.00580831
0.00353619
0.000166585
0.000225345
0.000128618
0.000172013
0.00326302
0.00278795
7.96062e-05
0.00343884
0.00298437
0.00837046
0.00917007
1.96092e-06
0.00429591
3.41605e-06
0.000215022
0.00324013
1.14192e-05
0.00353697
2.62845e-05
0.00659558
0.00169698
0.00343083
0.000546883
0.000459904
0.00295152
0.00338699
0.00334463
0.000466102
7.15203e-06
0.000223482
0.00116232
0.000146502
0.0001137
0.00746104
4.43564e-06
7.83998e-05
0.00345946
0.000376838
0.00391122
0.000574769
0.002924
0.00332631
0.00484482
0.00384998
5.94206e-07
0.00163244
0.00300679
4.64601e-06
9.36259e-09
0.000372138
0.00505761
1.2505e-05
0.00270711
0.00296197
2.05436e-06
0.00257245
0.000454728
0.00443745
0.000190621
0.00028638
0.00356729
0.00162462
0.000140558
0.00582514
0.00854377
0.000161819
0.000309038
0.000135891
0.000441235
0.0048412
2.45597e-05
5.86051e-06
0.0071957
0.00296437
0.00628039
0.00766382
0.00410315
0.000334156
0.000200942
0.000245228
0.00141843
0.00321383
0.00018148
7.86391e-05
0.00240588
0.00272266
0.00207069
0.00270956
1.3576e-05
2.07398e-05
9.74032e-05
0.00016585
0.000101176
0.000255577
0.00245319
0.000154674
0.00331488
0.00236888
9.51254e-05
0.00124393
0.00745924
2.54726e-05
0.000350311
0.00127901
0.00106493
8.64403e-06
0.00357027
0.00855819
0.00100581
0.00318607
0.000923783
0.00113863
0.00484415
0.00172531
0.0021978
0.00064548
9.9065e-05
0.0032027
0.0031019
0.000132224
5.40233e-05
0.000127057
0.000737542
0.00430677
0.000127484
0.000129743
0.00033403
0.000662798
0.00657385
0.00526392
0.00502825
0.00333852
6.63667e-08
8.73674e-05
0.000428045
0.00701614
6.97504e-06
0.00120307
0.00133877
0.00382145
0.000245484
8.97669e-05
0.00849664
0.00480205
0.00186382
0.00327995
1.8325e-05
0.000212281
0.00316098
1.89058e-05
1.67265e-05
0.00288859
0.000859234
0.000722273
0.00870441
4.73622e-06
0.00738427
0.0042431
0.000133653
0.00474992
0.000783896
0.00677288
0.00238232
0.00223987
2.0779e-05
0.00321127
0.000340104
3.74111e-05
0.00229405
0.000240667
0.00214111
0.000152901
3.48275e-05
0.0023899
0.00800124
8.0942e-05
0.00663927
0.000868337
0.00060857
0.000375894
0.00212205
0.00327361
1.008e-07
0.00330706
0.00199805
0.00272945
0.00101157
9.84245e-05
0.0052541
0.0038321
0.00722519
0.00345685
0.00370598
0.00242829
0.0040209
2.77073e-06
1.92662e-06
0.00299246
2.9032e-08
4.57798e-07
0.00265464
7.29591e-05
0.00161968
0.000192093
0.000885159
0.000533865
0.000120353
0.00600976
0.00214755
5.40768e-05
0.000338466
0.0057886
0.00047848
3.22364e-06
2.24328e-06
0.00236204
1.09242e-05
0.000313904
0.00651957
8.61974e-06
0.00281448
0.00101726
0.000286521
3.85981e-07
0.000137792
6.90028e-05
0.00349835
0.000140384
0.000241325
0.00252581
0.00853334
0.000519405
0.000721347
0.004463
0.000244712
0.00313904
1.30723e-05
0.000195372
7.94754e-05
2.60303e-05
3.55622e-05
7.62012e-05
0.00352739
0.00317413
0.00217779
0.000146912
0.000175243
0.00281048
0.00583291
0.002089
0.00323429
0.00412028
0.00162174
0.00227315
0.00558635
0.00648601
6.3215e-06
0.000870781
0.00100814
0.00214516
0.00164261
0.000488215
0.00026063
0.000200931
2.44259e-08
0.00599095
0.00605257
3.18088e-05
8.95539e-06
0.00584415
0.00222996
0.00434001
5.52932e-05
0.00600385
0.00047378
0.00371087
2.96756e-06
6.12858e-05
0.00173016
0.000505765
0.00639868
4.36696e-05
1.22786e-05
9.73654e-05
0.00255792
1.12296e-07
0.00313545
2.80288e-06
0.00672253
0.000231072
0.00493391
0.00606368
0.000937755
0.000511208
0.000499404
5.09091e-05
0.000247227
0.000137584
4.97301e-05
2.709e-05
0.000180647
2.1036e-05
0.00321674
0.00238294
0.00317187
7.82389e-05
7.71421e-05
0.00451698
0.00601085
0.00305446
0.000753431
0.00337099
4.80332e-06
0.00790729
0.00392397
0.00863238
0.000277435
0.00365023
0.000351232
0.00842053
0.00521874
7.16853e-05
0.00016665
0.0029784
0.000219611
0.0033603
0.00392016
0.000106412
0.000142422
0.000855821
0.0015362
0.00691765
0.0024736
0.000274717
0.000311591
0.000216879
0.000771874
0.00163397
3.96821e-06
0.00503041
0.000265196
0.00321914
0.00247451
0.00021103
0.00526443
0.00309477
0.000117876
0.00046572
0.000102026
5.15224e-06
0.000228448
0.00799589
0.00339305
9.62768e-06
0.00815856
0.00603589
0.0024646
2.91866e-06
2.73052e-06
0.00941074
0.00448098
0.00463066
0.00110618
0.00322718
0.00566269
0.000268387
0.00456176
0.000211922
0.0061084
4.06854e-05
2.029e-05
0.00768496
0.00450017
0.000414227
0.000351305
0.000635571
0.00309246
0.00723405
0.0046574
3.18292e-05
0.00298462
0.00444605
0.00226177
8.82098e-05
0.0024928
0.00227186
8.02213e-05
2.20844e-06
3.06148e-06
5.76083e-07
0.00125271
6.13398e-05
0.000344513
0.000391615
0.0049302
1.3951e-05
0.00373678
0.0012771
0.00390954
6.53915e-08
0.000319755
6.89671e-05
0.00849651
0.00349675
0.00324348
0.00407169
1.40406e-05
0.00825714
6.55192e-05
0.000467773
0.0054743
0.00247045
2.82302e-05
0.000353336
4.8107e-05
0.00615038
0.00588675
0.00278261
0.00446251
0.00372406
1.82027e-05
0.000700898
0.00291705
0.00339377
0.00326862
0.00409034
1.46367e-07
1.55781e-05
0.00766189
1.05469e-05
0.00385535
0.000105514
3.07916e-05
6.66097e-05
1.40682e-05
1.03033e-05
0.000185847
0.00339412
0.00733998
1.13067e-06
1.85949e-06
3.09501e-07
5.83027e-08
0.00682148
0.00296121
0.000254641
0.00441094
0.00588132
0.00562481
0.000784977
8.82015e-05
0.00170198
0.00903644
0.00589956
0.0075108
0.000238969
0.00336158
0.000185899
1.36836e-07
0.00390644
0.00627408
1.51809e-05
0.00727076
0.00634658
9.99282e-06
0.00341084
0.00355729
0.00425519
0.000565245
0.000546997
0.00316822
0.00604914
0.00367331
0.0039055
0.00340446
7.08152e-05
0.0015013
0.00198494
0.000221014
0.00790736
0.000325938
0.00328168
0.00337585
3.35233e-06
0.002693
0.000998053
1.31785e-05
0.000214401
0.00390389
0.00382018
0.00502148
0.000419602
0.00149199
0.00266728
0.00339811
0.00358862
0.00321979
0.00502228
0.000267134
0.00868892
0.00480764
0.000239906
2.53344e-06
0.00018438
0.00359876
0.00404081
0.00549055
4.91022e-06
3.48939e-05
0.00359017
1.202e-08
0.00494536
5.26299e-07
0.00213543
0.0026302
0.00480261
0.00820226
0.00625491
0.00326469
0.000312325
4.27075e-05
0.000587785
0.000216177
1.46138e-05
2.76175e-05
0.000161109
8.6461e-05
0.00449404
0.00743968
0.00519439
0.00493995
0.000563592
7.14162e-06
0.000512686
0.00768807
0.000964384
0.00218698
0.000458976
1.07714e-06
4.5646e-05
0.00330495
0.00439869
0.00316178
0.000219672
0.00330623
0.000104216
0.00276579
0.00618201
0.00270654
0.00525775
0.00147412
0.00220967
0.000235636
0.00166475
0.000272037
0.00325271
2.07014e-05
0.00461612
1.01585e-05
7.04058e-06
2.09785e-07
1.82269e-06
0.000581083
0.000557845
0.00421088
8.60093e-05
0.00263779
0.00433089
0.00010826
0.00378638
0.00037462
0.000210936
0.00495329
0.000136575
0.00407353
0.000419229
0.00634573
0.00347568
0.00610074
0.000358579
0.00300716
0.00646648
2.1702e-05
0.00345671
0.000101347
7.73541e-05
0.00322482
2.25414e-05
3.64835e-05
0.000166861
0.000120174
0.000147286
0.00726267
0.000565596
0.00568164
0.00498401
6.48901e-08
0.000275204
6.89547e-05
0.00255477
1.36726e-05
0.00842194
0.000683908
0.00149026
0.00327557
0.000326769
0.00760982
0.000406182
0.00687747
0.000288546
0.00785313
5.04517e-06
8.12171e-06
2.54448e-07
1.42483e-06
1.3962e-05
3.41883e-05
9.96336e-05
0.000169504
0.00270104
3.64152e-05
0.00191844
0.00406844
0.000390046
0.00360385
0.000196761
0.000613114
1.69331e-08
0.00197647
0.00250249
0.00664951
4.72752e-07
2.91822e-06
0.00914368
4.19873e-06
0.000261973
1.79645e-05
0.00322095
0.000308298
0.00017248
0.00303253
3.09375e-05
4.39603e-05
0.00778532
0.00144589
7.07207e-07
0.00176273
2.71095e-06
0.00176135
1.4018e-05
0.00254645
0.00625491
0.000288727
1.74257e-06
0.000925176
7.42998e-06
6.37502e-07
7.70017e-08
3.76534e-06
5.23577e-07
2.56816e-06
0.000171824
0.000168952
0.00887877
0.00808098
0.00813031
0.00358622
0.00806563
0.00318919
0.000242411
0.00293185
0.00107257
4.5218e-05
0.00328378
0.00309446
0.000129846
0.00498737
4.18848e-05
7.02606e-06
1.15081e-06
5.44946e-06