/*--------------------------------*- C++ -*----------------------------------*\
| =========                 |                                                 |
| \\      /  F ield         | OpenFOAM Extend Project: Open source CFD        |
|  \\    /   O peration     | Version:  1.6-ext                               |
|   \\  /    A nd           | Web:      www.extend-project.de                 |
|    \\/     M anipulation  |                                                 |
\*---------------------------------------------------------------------------*/
FoamFile
{
    version     2.0;
    format      ascii;
    class       volScalarField;
    location    "2000";
    object      kappaEff;
}
// * * * * * * * * * * * * * * * * * * * * * * * * * * * * * * * * * * * * * //

dimensions      [1 1 -3 -1 0 0 0];

internalField   nonuniform List<scalar> 
26307
(
1.33451
0.242931
0.225633
0.170857
0.248638
0.411143
0.0962856
1.2962
0.128312
1.72791
0.162054
0.205806
0.201667
0.137919
0.0319877
0.03664
0.0888899
0.161094
0.210695
1.5584
1.92386
0.380793
0.159119
0.201908
0.032493
1.21663
1.51925
0.0304877
0.380431
1.94115
0.0317523
1.34383
0.0312863
0.476319
0.559996
0.0700961
1.12511
0.185231
0.147156
1.67736
0.0492894
0.111836
1.72122
0.0444448
0.103862
0.0389938
0.653369
0.98951
1.69332
0.199384
0.0369439
0.195049
0.949219
0.371515
0.343631
0.15325
0.203392
0.133925
1.01347
0.449983
0.0408137
0.0335098
0.147838
0.210041
1.58009
0.0303325
0.319492
0.160694
0.0877482
0.968509
1.28709
0.0315191
1.69883
0.0823547
0.0473209
1.45507
0.203012
0.0915852
1.60654
0.089465
0.0301118
1.20249
0.0343498
1.42413
0.701402
0.969912
0.278628
0.153416
1.40676
0.100288
1.38971
0.0407114
0.198268
0.111887
0.123119
1.92987
0.0318191
0.0336781
1.61216
0.662286
0.034047
0.11868
1.25436
1.20792
0.0823818
0.0368666
0.0403179
0.658373
1.30185
0.165335
1.67293
0.0381213
0.324317
1.59943
0.110617
0.031992
0.0381888
0.0877854
1.18317
1.23835
1.62353
0.215923
0.0335407
0.0358093
0.0631806
0.0418759
1.41014
0.0393331
0.0313573
0.0309139
0.0312791
0.0303044
1.8598
0.0660453
0.400188
1.38884
1.37621
1.51412
1.69632
0.301744
1.43444
0.266691
0.0829361
0.0311923
0.571353
1.45828
1.29392
0.2602
0.0481159
0.419694
1.56591
0.0452812
0.327378
1.5383
1.84254
1.64722
0.169404
0.0351153
0.155864
0.0329469
0.0866802
2.02659
0.158165
1.64763
1.37112
1.83739
1.0087
1.88227
0.0624696
1.41461
1.75961
1.77214
0.54171
1.48039
0.0400776
0.179568
0.0311014
1.52688
1.72368
1.34153
0.0696305
0.0463559
1.60755
0.0403566
0.418644
0.162789
0.132451
0.0360063
0.236596
0.339658
0.267254
0.0303575
0.129759
1.59805
0.450704
0.118554
0.0301848
1.4574
0.0602277
1.15527
0.0308975
1.54861
0.078022
0.0399451
0.191254
0.114469
0.166854
0.0310284
1.83468
0.0519182
0.153823
1.75176
0.107563
0.0339006
0.304623
1.17014
0.221652
1.90439
1.56374
0.0869842
1.99609
0.173711
0.0310253
1.87183
0.10554
1.36177
0.210098
1.89945
1.41565
0.15986
1.91756
0.161477
0.15539
0.142393
0.637845
0.391435
0.81288
0.180156
0.0390991
0.15278
0.0300953
0.0309951
0.164326
1.95108
1.80626
0.110936
1.57225
1.41551
1.86456
1.6813
0.259059
1.68132
0.0302258
0.0308615
0.0349159
0.0314392
0.0331224
0.044829
0.0317025
1.89457
1.01011
0.0301438
0.147328
0.0788282
1.60977
0.110834
0.097463
1.04335
0.601611
0.310879
1.21698
1.3554
1.68407
0.0378286
1.66649
0.0301461
0.425399
0.189394
0.0326562
0.136915
0.374253
0.640473
1.63691
0.0691524
0.0382357
1.32596
0.208404
0.0302999
0.0322181
1.46497
0.0793048
0.0314321
1.35294
0.825036
0.8695
1.91304
0.295137
0.332414
0.77847
0.030138
1.87808
0.0855261
1.01248
0.803417
0.093942
0.0384688
0.0488115
0.140079
0.154497
0.0304675
1.21118
0.0301488
0.148064
0.45405
0.0411993
0.0429362
0.040772
1.09298
1.34629
0.0694251
0.15933
1.89801
0.0373607
0.427348
0.0582648
0.0315795
0.0376451
1.87017
0.424567
1.99651
1.27094
0.0375064
0.0315565
0.807906
1.71536
0.0323447
1.22211
0.534043
1.54235
1.46442
0.0511159
0.270995
1.55498
1.47819
0.0683133
1.11714
1.27723
1.41274
1.61446
1.84702
0.780123
0.133364
0.194437
0.238112
1.71601
0.913177
0.359825
0.102124
0.193352
0.897845
0.761108
0.0964064
0.931513
0.0346129
0.04711
0.0429004
0.251413
0.919923
0.262848
1.26397
1.30421
1.14987
0.396666
1.31508
1.8678
1.87539
0.906198
1.1446
1.90504
0.182381
1.4043
0.40147
0.128041
0.113308
0.0379024
1.34407
1.55478
1.37247
1.49893
1.6748
1.2587
0.791238
0.227058
0.316797
1.4524
1.58918
0.0350867
0.277145
0.234091
0.0310513
0.257862
0.0302706
0.24078
0.175455
0.0773786
1.67132
1.12322
0.0306799
0.840917
0.0352396
0.0846382
0.113832
1.63714
0.827285
0.0654327
0.404404
0.0455249
0.0653231
0.0352739
1.5634
0.104
0.034873
0.0307154
0.0323104
1.66092
1.20458
0.0358596
0.0882578
1.52576
0.0411141
0.893145
0.256487
1.41519
1.11751
0.0366894
1.61751
0.0359734
0.729632
0.776459
0.819
0.0852615
1.03036
0.0405933
0.406963
1.51613
0.0462656
0.457207
1.65015
0.14871
0.584252
1.4085
0.0306299
1.69693
0.270166
1.53316
1.59409
1.96603
0.168272
0.231635
0.0324461
0.2521
0.0302232
0.0390088
0.703509
0.824001
1.48555
0.0322516
0.0354985
0.12985
0.114953
0.629793
0.363924
0.755429
0.910185
1.1203
1.01407
0.0978537
0.692522
0.0368725
0.0466697
1.07145
0.196134
0.138754
0.0973871
0.281963
0.928314
0.808652
0.0348617
1.52908
0.116948
2.172
1.36889
1.02849
0.0409212
0.176582
1.79496
0.964077
1.23857
0.106006
0.0303406
1.52956
1.93451
1.54594
0.0300865
1.2382
1.76169
1.68575
0.177359
1.86397
0.724943
0.0302315
0.0301101
0.0309058
0.0306359
1.03655
0.164868
0.0314275
1.85654
1.48985
0.282282
0.031455
0.33613
1.49439
0.0678006
0.225928
0.191332
0.0459492
0.85628
1.77772
0.154769
1.24326
0.784167
1.3817
0.157067
0.0307067
0.908188
0.0330494
0.197007
2.22929
0.0459177
1.63362
0.830301
0.230601
1.01265
0.517985
1.20824
0.0600302
1.2411
0.0344901
1.88724
0.0336458
1.06086
0.0365395
0.168874
0.0363407
1.80347
1.53929
0.462379
0.526195
0.0314886
0.584375
0.679508
1.81193
0.0723177
0.107638
1.15911
0.0332733
0.195282
0.152006
2.0093
0.0303291
0.0349635
0.215688
0.289355
0.0315339
0.0342651
0.0303922
0.856007
0.740192
0.187273
1.70068
0.714233
0.147924
0.0306542
0.0306208
0.874909
1.03311
1.62551
0.0404627
0.0319158
0.0396857
1.41753
0.0323028
0.0316526
0.319634
1.71497
1.47903
1.77165
0.0304464
0.044628
2.03196
0.765134
1.15022
0.0873288
1.23769
0.0362072
0.0318028
0.030249
0.0301268
0.0301128
0.0300862
0.0300915
0.351436
0.174649
1.3479
1.904
1.79315
1.31519
0.15446
0.0861339
0.905678
0.6773
0.106292
1.54836
1.7915
1.31254
1.62364
1.59717
0.0518557
0.156684
0.530386
1.0545
0.0301604
1.59898
0.809078
0.0302401
1.32662
0.968225
1.11417
0.201458
1.69484
0.158738
1.17935
0.0900868
1.45818
0.750247
1.75619
1.47747
1.84992
0.0394386
0.778681
1.66583
0.0512687
0.135377
1.38685
1.52877
1.64111
0.031597
0.160221
0.0328513
1.5274
0.0349448
1.56305
0.0902181
1.6715
1.46422
0.114201
0.207146
0.0390827
1.54155
0.162915
0.224013
0.0479595
0.0316202
0.368121
0.0355834
0.296475
1.66118
0.138607
0.246826
1.69756
2.1026
0.0303874
0.0387991
0.241828
0.231999
0.0305936
0.141606
0.789034
1.55878
0.231957
0.0315312
0.9537
0.0945395
0.232337
0.130379
0.0355162
0.0303201
1.06602
0.0336261
1.1714
0.0325029
2.04391
0.0352427
0.0300967
0.146225
1.39334
1.72605
0.952944
0.374819
2.08472
1.66451
1.67029
0.214302
0.188839
1.39527
0.561483
0.779893
1.42138
0.147547
1.73169
0.399619
1.62299
1.3447
1.70479
0.0444142
0.263627
1.67398
2.03291
0.0304191
0.132435
0.119976
1.43033
0.841963
1.37239
0.176803
1.91043
0.136185
1.60936
0.282515
0.982698
0.0686028
1.30251
0.172023
1.14366
1.78448
1.0474
0.315228
0.286144
0.251984
0.0302051
0.212762
0.13924
1.8911
1.77324
0.451954
0.403484
0.951222
2.02538
0.0918758
1.60121
0.757897
0.0300852
0.0346525
0.0331443
0.0691984
1.72192
0.190948
1.64356
1.60228
1.432
1.88679
0.411331
0.385823
0.13083
0.863495
0.151707
0.162334
0.854063
1.75823
0.0440621
0.0711234
0.0318027
0.148454
0.0306041
0.0832184
0.0307238
0.0674563
1.39413
1.53756
0.0985612
0.0319663
2.2574
0.177721
1.65158
0.167246
0.222282
1.92113
0.945248
0.0721972
1.23089
0.308808
1.2982
1.61685
1.717
0.0466288
1.80081
0.0820351
0.227048
0.142307
0.037436
0.0317235
0.990316
0.294585
1.64616
0.905082
2.11513
1.56851
1.67207
0.128895
1.23018
1.92066
0.158545
0.0417042
0.0446435
1.22449
0.0881159
0.0301534
0.0324231
0.40863
0.353752
2.50916
0.437472
1.49792
1.70506
0.197268
0.0301051
1.75318
2.0994
0.0340981
0.0320647
0.124435
1.77275
0.0336817
1.42975
1.31568
1.64955
0.0828606
0.873425
1.15503
0.0363394
1.70127
1.92898
1.3938
0.259871
1.15126
1.62589
0.183276
0.169262
0.0339368
0.0340091
0.186359
0.726048
0.0300879
0.0391642
1.40025
1.42725
0.0360904
0.725459
0.0301575
0.0301071
0.0300895
0.0302181
0.0304535
0.0337787
0.03203
0.0308002
0.941411
1.79943
1.02038
0.0300903
0.463939
0.0339919
0.256793
1.46771
1.26219
1.62621
0.401335
0.0346784
0.0372971
0.207077
0.0329896
2.00652
0.0521466
0.0497015
1.57938
1.43917
0.158071
1.11829
0.0342985
1.72132
2.26185
0.0316887
1.67581
1.6898
0.125891
0.15161
0.307195
0.157519
0.819084
0.151348
0.030711
0.139632
0.290542
0.0301436
0.0407211
0.0361129
0.0872474
1.14922
2.09582
0.0330813
1.7553
0.265995
0.0645273
1.34284
1.62455
1.62158
0.0305688
1.52505
0.0365453
0.0840596
0.340594
0.131516
1.83318
0.732786
1.68839
0.0339932
0.252058
0.0927608
1.51552
0.189263
0.816201
0.599895
0.0617785
0.137157
0.0585341
1.42075
0.030568
0.25735
1.54845
1.48349
0.0310307
0.807231
1.61896
0.910586
0.380369
0.0311518
1.5915
0.721444
0.951795
0.651641
0.234096
1.65492
1.45206
1.63995
0.195061
0.106948
0.660723
0.0944151
0.0444699
0.0328411
0.0339739
1.6384
0.16059
0.442641
0.0506017
0.0344522
0.032194
0.0309502
0.0302455
0.0353674
1.09164
1.45968
1.65655
0.152208
0.107585
0.0301163
0.0302307
1.76299
0.0910834
0.412447
0.22425
0.372515
1.74001
0.0311543
1.57397
1.12344
0.149156
1.80532
0.708573
1.49077
1.61445
0.0891153
0.214292
2.2229
0.0300937
0.188432
1.1027
0.0315261
0.107053
0.0965374
0.559075
0.701564
0.274398
0.0300969
0.1782
0.201586
0.0300847
0.0610624
0.0396454
0.108572
0.106233
0.147619
2.36954
1.60659
0.033742
0.0318386
0.550717
1.77064
0.668673
1.74761
0.0635614
0.881881
1.31568
0.0301699
0.0847424
0.92045
0.23286
0.825367
0.0672122
1.88545
2.24888
0.181186
0.0763611
0.0986199
1.79134
0.076422
1.57503
1.62551
0.0307765
0.0481956
0.200318
0.0661514
1.47663
1.6213
1.60155
1.72076
2.0604
1.63813
1.13702
0.0301028
0.950106
0.0319266
1.71487
0.0304835
1.66494
0.0766437
1.12026
1.69679
0.0426755
1.01846
1.88581
1.66498
1.35859
0.21049
0.0577436
0.861974
0.0300994
0.209279
0.038093
1.7473
0.0307841
0.178673
0.030207
1.71933
0.927935
0.388079
0.0457578
0.0888029
0.0307704
0.0326798
1.55682
1.31624
0.0719407
0.401235
0.298835
1.90041
0.106096
0.033852
1.28698
1.93575
1.29346
0.772141
0.155749
0.829308
0.337584
0.652143
0.117653
0.389408
0.0725971
0.937393
0.524384
0.874542
0.0731541
1.24816
1.57309
1.73607
1.62898
0.0962304
0.0372608
0.21236
0.178205
1.71744
0.364081
2.5158
0.319782
0.725019
1.00774
0.262033
0.118159
1.8782
0.0356096
0.0345229
1.87782
0.0312825
1.36232
0.409134
0.769394
0.163981
0.199071
0.196429
1.70004
0.0313534
1.5775
2.13305
0.0785243
1.10795
0.0672718
0.796352
1.33193
0.0323693
0.822366
1.69896
0.0338459
1.61709
0.939164
0.102851
0.624556
2.33586
0.699058
0.419377
0.0356842
0.927531
1.97439
0.102154
0.0383825
2.27026
0.565561
1.10586
1.94699
0.681039
0.834732
0.205581
0.531962
0.0498787
0.172131
1.63555
1.1125
0.179185
0.166134
0.207192
0.258032
0.0438075
1.85105
1.66944
1.62848
2.26822
1.60872
0.947467
0.606561
0.720962
0.102752
1.4903
0.359106
1.70228
0.0512613
0.0300863
0.0482332
1.84655
1.48356
0.988396
0.110616
1.47832
0.447172
0.581642
1.18343
0.378875
0.29868
0.314396
0.28729
1.81598
1.60577
0.0368931
0.118127
1.37905
1.43804
1.80271
0.0305783
0.0317113
0.0391715
0.0305796
0.0323458
0.0438386
0.0505554
0.0656704
0.0651192
0.0334752
0.37061
1.81784
1.17056
0.697881
2.47062
0.129243
0.167336
0.0483277
0.0452872
0.0320966
1.63002
1.46875
0.111367
2.10911
0.324106
0.308613
0.502675
0.0671254
0.0359821
2.40788
1.45312
0.128476
0.692762
0.0390782
0.174022
0.356873
0.339754
0.158327
1.21217
0.230761
0.030211
1.42913
1.15325
0.0748549
1.46625
1.88986
0.694227
0.0346294
0.951263
1.4644
0.158982
0.167777
1.61129
0.11577
1.69198
1.21374
1.72131
0.0347189
0.230711
0.0509192
0.262786
0.0430606
0.0431693
0.0808398
0.182349
1.81428
0.592929
1.43965
0.165674
0.0308849
0.77386
0.0318963
0.975448
1.67325
0.910276
0.116666
1.24698
1.59399
1.79915
2.12403
0.0539738
0.150418
0.802391
1.78002
0.357669
1.4554
1.11712
1.09045
1.52294
0.0743772
0.716571
0.25538
0.144693
0.278343
0.244131
1.25799
0.0360904
0.0495024
0.0577959
0.27287
0.173974
0.223445
0.0458524
0.097189
0.106078
1.29633
1.01468
0.0301496
0.127237
1.17487
1.59537
0.114989
1.33345
1.72983
0.0308493
0.0334112
0.0302041
0.221383
1.0911
1.58399
0.03858
0.571938
0.642635
0.0319424
0.272807
1.70988
1.56491
0.140203
1.86593
0.0303288
0.453948
2.4277
0.0302461
0.0300914
0.680062
1.34045
1.62979
1.67612
0.728612
0.0310128
1.39895
0.0322031
1.21377
0.0314797
0.0783764
2.58951
0.0697204
0.512878
0.645488
0.204011
0.072751
1.49356
0.0937773
0.0300996
0.099405
1.22925
0.0887137
1.61802
0.314381
2.47801
1.32148
1.06803
0.0378359
0.328558
1.40196
0.0346826
1.50753
1.81337
0.262471
0.032749
0.936284
0.145789
0.903753
0.0933574
0.428409
0.51372
0.045268
0.0859771
0.199929
1.44606
0.833032
0.0305291
0.731075
0.169963
0.0789983
0.861968
0.0341544
0.172765
0.0319218
0.446282
0.292912
0.303006
0.186043
0.0311636
0.742228
0.81957
0.0352519
2.22251
1.4336
0.0344596
0.0994551
0.0407839
0.64678
0.667814
0.134477
1.36915
0.0875279
0.566331
1.81043
0.997357
0.9968
0.0317405
0.175572
1.46755
0.11245
0.0855807
1.32289
0.244745
0.0304494
1.65508
0.0302915
1.64307
0.444151
0.513612
2.64188
1.21903
0.0304903
0.793878
0.0437023
0.0455622
0.886503
0.667496
0.563746
0.795686
1.17956
1.33202
0.0434229
0.816997
0.122478
0.0695135
0.910341
0.0400977
0.11337
1.66145
1.19729
1.23981
0.0400008
0.0657174
0.0398696
1.66907
1.64577
0.18126
0.033264
0.468432
0.037742
0.0300847
0.169974
1.07119
0.419437
0.386363
1.65353
0.221264
2.18827
0.708747
0.0429862
0.0316927
0.128259
0.036336
0.320698
0.430609
0.0655669
0.239212
1.38795
0.655442
1.1285
0.523746
1.23463
0.200359
0.0354707
1.68753
0.0339003
1.65495
0.574005
0.813566
0.170446
0.278973
0.288988
0.272894
0.0492851
0.0668015
0.622477
0.256687
0.177092
1.76298
0.0306992
1.57354
0.0399195
2.45615
0.0935554
1.13681
0.430948
1.705
0.0465023
1.63904
1.47965
0.032443
0.0466177
0.0623347
2.25248
0.280373
0.166911
0.746347
0.0309117
1.24364
0.117605
1.5283
0.141027
1.0727
1.89593
1.91966
0.15223
1.54418
1.57856
1.59949
0.0976874
1.25967
1.03534
0.0304034
0.155493
1.49462
0.0330781
0.0320331
1.64596
1.67903
0.0317892
0.030769
1.57327
0.885285
0.201208
1.91591
0.102496
0.189711
0.0367797
0.0363786
1.63696
0.668466
1.68466
1.49566
0.030505
0.197478
0.323524
0.320629
0.112439
1.33516
1.23095
0.231877
0.544561
0.107113
0.0323491
0.0627645
0.0308636
0.104225
0.214998
0.158548
0.0906017
0.0386292
0.198523
0.648091
0.766433
0.0410055
0.181507
1.58274
0.233469
1.57491
0.371235
0.286614
0.11276
1.41175
1.09774
0.181597
0.0610428
0.413644
0.204269
1.64839
1.61613
1.58924
1.14947
1.18314
0.410617
2.17491
0.126554
1.61351
1.4844
0.0527968
1.67372
1.79305
0.171432
0.0302108
1.08021
0.225199
2.38489
0.214968
0.885748
1.04369
0.133341
0.937452
0.433377
0.514861
0.11848
0.0429891
0.0308281
0.100956
0.0478029
1.37518
1.9171
0.0417291
0.156658
0.261001
1.48261
0.391441
0.0304883
0.338312
1.42383
0.449432
0.394959
1.0494
0.169184
0.044595
0.0455258
0.604645
0.698731
0.112241
0.455323
0.0309725
1.62106
0.231995
0.232365
0.129061
0.0301252
1.12242
0.271933
0.248431
1.07701
1.5112
0.0855234
1.13943
0.937918
0.167592
1.50832
0.0480142
0.052588
0.997051
0.0312425
0.563875
1.54673
0.171851
1.23555
2.27594
0.506684
0.653912
0.0331208
0.0350788
1.7262
0.414851
0.223251
0.0534628
0.0344801
0.182106
1.31153
0.0621783
1.64756
0.11638
1.93232
2.63429
0.344784
0.0792841
0.463065
0.581396
0.0302088
0.0958421
0.0700407
0.103544
0.0300867
0.0387052
0.887891
0.208175
0.182395
1.52345
0.0305082
0.0444445
0.0559041
1.18964
0.0675968
0.17632
2.28792
0.0301108
1.56215
0.156457
1.38612
0.206917
0.0311165
0.0919879
1.09166
0.0313117
0.241973
0.306278
0.34337
0.0941762
0.158989
1.90446
0.0867667
0.240901
0.0301138
0.116711
1.54119
0.114279
1.76077
0.214897
0.678583
0.782785
0.0314641
0.0322193
0.0372003
0.077976
0.926105
0.0817384
1.60267
0.241618
0.0366612
0.0376578
0.0305037
1.80819
0.0417422
0.100959
0.0378989
0.0786252
1.81428
1.39448
0.030519
0.0307402
0.0302027
0.0301075
0.0301125
0.0301105
0.0300861
0.0300905
1.62916
1.59098
0.959044
1.73342
0.0335836
0.0716072
0.422497
0.0719104
1.23454
0.0463343
0.0310141
1.10688
0.15714
0.0303657
1.65946
0.0801538
0.0642992
0.0344247
0.054988
1.27174
0.102111
1.77568
0.289664
0.0887867
1.253
0.0886554
1.79073
1.77153
0.138343
1.24637
0.0343974
0.0355718
1.86554
0.17578
0.224442
1.663
1.11021
0.130122
0.0370092
2.5957
1.62059
1.65616
0.50523
0.0311681
0.176773
0.230786
0.116149
0.0520605
0.037591
0.0303179
0.353559
0.0305541
1.62321
2.44633
0.862433
0.302749
0.0328399
0.0804303
0.0370062
2.0382
0.0322996
0.660746
1.45619
0.0828113
0.0411672
0.197333
0.145066
0.0321207
0.189252
1.48649
0.0369206
0.113907
0.0325897
0.0309177
0.0316715
0.0338643
0.0307844
0.147053
0.239801
1.57012
0.113376
1.38528
0.0307567
0.0360145
0.0881946
0.187292
0.168371
2.20021
0.0927966
0.130836
0.148672
0.0437271
1.81094
0.030245
1.36862
0.381674
0.390886
1.74067
0.649877
0.780173
0.0323206
0.047398
0.0332545
0.030171
0.0306324
0.0344309
0.0351221
0.052773
0.300596
1.72445
0.0337254
0.818795
0.964696
0.230423
1.77722
0.223215
0.203697
1.68599
0.0329663
1.22997
1.62549
0.166564
0.0587311
0.137926
0.180025
1.3478
1.24353
0.0698538
1.27158
1.5804
1.82806
1.69773
0.0303708
0.419234
0.0304132
0.102868
1.32447
0.0306597
1.21785
0.0369572
1.3167
0.256494
1.63058
0.322647
0.165095
1.21252
1.22193
1.34905
0.236986
0.0341828
0.230569
0.395613
0.0780664
0.0626184
2.50619
0.0326753
0.0537458
1.63382
0.307512
0.733782
0.115338
1.54211
1.41165
1.53353
1.80647
0.030195
0.244248
0.141833
0.0303641
0.030086
0.307733
2.03629
0.0361712
0.622587
1.80575
0.0304733
1.24197
0.107606
1.65449
0.194501
0.255779
0.852591
0.150879
0.0514037
1.40722
1.29328
0.166104
0.355482
0.156069
0.336464
1.55181
0.0347381
0.0308481
1.44517
1.54377
1.51145
1.48591
0.794129
0.120817
0.0798047
0.15669
0.511894
1.72513
0.0473925
0.0839942
0.963826
0.813019
0.621092
0.182542
0.035823
0.0350326
0.107527
0.0391037
0.0356746
0.241028
1.26973
0.165054
1.305
0.976189
0.0664415
0.394638
1.43749
0.0352144
0.358694
0.498676
0.456738
0.0345154
1.50267
1.6017
0.0997271
1.67001
0.366988
0.430059
1.72381
0.606556
0.73475
0.185188
0.0514762
1.4905
1.15866
0.0667869
0.0426802
0.161604
0.190668
1.92103
0.135837
0.0914547
0.256304
0.0703045
1.77314
1.38305
0.934976
2.30325
0.0301198
0.0736201
0.0759118
1.90184
0.0306516
0.493882
0.50831
1.38994
0.118817
0.104731
1.6688
1.85876
0.135152
1.28706
0.0374158
0.15235
1.50137
0.0365681
0.0370034
1.71022
0.083039
0.0625162
1.28139
0.0302936
1.20089
1.48532
0.166676
1.69379
0.277885
1.69588
1.11945
1.82235
0.0362984
0.79362
0.234345
0.0489792
1.12176
0.171953
0.938199
0.154032
0.0371055
1.1207
1.5331
0.0856535
1.70068
0.381696
0.338835
0.247468
0.882627
0.735456
0.0300886
1.91319
0.833019
1.52552
0.100059
0.0944192
1.82555
1.31941
1.30958
1.485
1.33076
1.12159
1.63263
0.0310892
0.0308093
1.38266
0.0301009
0.0302631
1.08868
0.0438873
0.206307
0.187597
0.0644299
0.0879161
0.0905178
0.814804
0.145701
0.0888461
0.0804928
1.21494
0.303955
0.0302721
0.031299
1.19891
0.0360223
0.167728
1.87462
0.0312734
0.384895
0.186308
0.074296
0.0301211
0.166182
0.0570183
1.36034
0.0724248
0.0879512
1.09539
1.22712
0.426144
0.0576342
0.197735
0.0445185
1.67709
0.0371669
0.0766569
0.0449883
0.0335021
0.0377093
0.0415592
1.91923
0.249009
1.80273
0.0850929
0.171665
0.680729
1.61415
0.16869
1.47093
1.29547
0.509159
0.674748
0.791265
2.5876
0.0338279
0.129091
0.444619
0.697935
0.566034
0.223793
0.262076
0.195673
0.0300871
1.44783
1.12387
0.0505649
0.0311872
1.78522
1.82841
1.68714
0.0359244
1.20052
0.395293
1.20675
0.0303148
0.0364029
0.256985
0.17782
0.744615
0.044182
0.0346312
0.0586549
1.63159
0.0300903
1.68789
0.0303743
2.01149
0.231503
0.803377
1.79067
0.151745
0.283837
0.405342
0.0351152
0.102083
0.0725149
0.0467209
0.0355507
0.15374
0.0380636
1.43902
0.167953
0.111229
0.0748645
0.0467513
1.82297
0.622885
1.81333
0.225146
0.934118
0.0305748
1.3511
1.33027
1.57662
0.20412
1.50561
0.312862
1.51952
1.014
0.0448059
0.0642281
1.70741
0.128988
1.47859
1.65861
0.0621413
0.0400769
0.205402
0.38804
2.37842
0.57924
0.144685
0.125056
0.0468152
0.182086
0.154403
0.0316628
1.62965
0.20581
1.30873
0.185724
0.10299
1.74501
1.59647
0.126459
0.136243
0.0396332
0.0322088
0.127556
1.29164
0.703398
0.0309506
1.44203
1.09091
0.184819
0.0303625
0.0303491
1.3923
1.05195
1.16831
0.0927817
1.61623
2.32722
0.103584
0.223629
0.174838
1.28066
0.0507795
0.0317005
1.73466
1.71061
0.203507
0.150039
0.2654
1.5662
1.82733
1.86281
0.0499689
0.155042
1.02835
0.138674
0.0358863
1.62545
0.888056
0.0389621
0.0303232
0.0304113
0.0301474
0.098986
0.0350411
0.188861
0.287024
1.2246
0.0362909
1.51997
0.0975452
1.83019
0.0300927
0.0916104
0.0444739
1.40233
1.42226
1.38594
1.72844
0.0386868
1.64472
0.0325751
0.244684
1.75391
0.94486
0.032217
0.0877657
0.0335375
0.712721
1.10227
1.60381
0.912648
1.29316
0.031381
0.288723
1.75349
2.27506
0.613436
1.52891
0.0301412
0.0358656
1.39812
0.0312006
1.23787
0.0736159
0.0335596
0.037553
0.0316721
0.0311527
0.0673356
0.80144
1.42085
0.0301499
0.0301927
0.0301028
0.0300883
0.670472
0.462975
0.0729265
1.64428
1.3379
0.641484
0.0851179
0.105222
0.260139
1.28791
1.16205
1.17381
0.166069
1.3464
0.046157
0.0301975
0.997952
1.50607
0.0365222
1.44663
1.26214
0.0308343
1.51721
1.63574
2.33203
0.187873
0.279616
2.27103
1.67728
0.69327
1.21441
0.745414
0.0819053
0.527493
0.647793
0.0694659
2.34691
0.267194
0.166087
1.51802
0.0319788
1.35221
0.132283
0.0407698
0.0891118
1.65876
1.45835
1.29596
0.146062
0.45579
1.55509
1.11011
1.31633
1.55835
1.59288
0.137046
1.53372
1.03763
0.204543
0.0315183
0.130098
2.33917
1.64107
1.24969
0.0333361
0.0374887
1.36088
0.0300895
1.37286
0.0302777
0.959345
0.543794
1.71329
1.36248
1.48528
1.40514
0.212821
0.0590939
0.321876
0.205552
0.0355381
0.0325733
0.0372768
0.0375586
0.57303
1.39207
1.83137
1.62199
0.0729751
0.0314702
0.0704956
1.40827
0.342312
0.150555
0.205612
0.0301404
0.0335264
1.9176
1.58335
0.715684
0.217301
1.33711
0.0573531
1.08651
1.14066
1.01441
0.960857
0.598148
0.416517
0.17432
0.674495
0.0829419
1.48299
0.0384942
0.84029
0.0328749
0.032064
0.0301587
0.0305857
0.165472
0.221711
1.47238
0.0437773
0.297125
1.42966
0.0714896
1.28176
0.0800576
0.0426722
0.355711
0.0384195
1.19103
0.2872
1.22234
1.45423
2.50936
0.0630425
1.43798
1.26936
0.043474
0.168544
0.073124
0.0946086
1.43536
0.0358679
0.0380823
0.0632213
0.0583921
0.0664598
1.46709
0.120884
1.03932
1.29219
0.0301018
0.231052
0.0698227
1.56601
0.0313581
1.31049
0.233548
0.0859253
1.47298
0.0628319
1.39922
0.227631
1.36628
0.297786
1.27266
0.030838
0.0312528
0.0301276
0.0303026
0.0327514
0.0385122
0.0551953
0.070291
1.31374
0.0359231
0.790771
1.36826
0.0681065
1.60033
0.190622
0.14344
0.0300892
0.803808
1.24655
1.40341
0.0303222
0.0303017
1.76724
0.0307037
0.131506
0.0414262
1.51822
0.0620649
0.12858
1.55241
0.0487522
0.0550504
1.48999
0.514614
0.0302547
0.154999
0.0303926
0.171374
0.0351261
1.35495
0.984065
0.0741164
0.0303315
0.296522
0.0305266
0.0302487
0.0301078
0.0310043
0.0301989
0.0307215
0.0383391
0.118365
1.89188
1.36424
1.32947
1.22385
1.81195
1.64966
0.242377
1.62752
0.307308
0.0441633
1.96976
1.5367
0.0966481
2.58856
0.0378228
0.0312644
0.030303
0.0308969
0.0343865
0.0303949
0.0399646
1.54574
0.0631925
1.8815
0.0456168
1.68249
0.605864
0.228927
1.65181
0.0428676
1.19101
0.446308
0.0353317
0.0309649
0.03026
0.0337048
0.0360702
0.0572211
1.37737
1.34719
0.264474
0.0501754
0.0339039
0.192356
0.934127
1.39639
2.12344
0.498326
0.101696
0.406277
0.0387166
0.920342
1.26681
0.109866
0.0770493
0.982552
0.119391
1.77255
1.38627
1.70057
1.6375
1.17581
1.75
1.83892
1.32711
0.030099
0.337269
0.0301788
0.0306167
0.0304907
0.944554
1.73776
0.299747
1.33596
1.53516
1.17319
1.50817
0.0315845
1.13788
0.517925
0.20427
0.17996
1.53875
0.176536
1.79736
0.927381
0.957651
0.0570391
1.03835
1.62935
0.181968
0.0406889
0.0367164
1.0598
1.55837
1.05854
0.0515644
0.683099
1.20517
0.0556676
0.0975397
0.0436106
0.0377517
0.0863116
0.0450917
0.0857489
0.987884
0.62747
0.986417
0.0391956
0.0548268
0.0755539
0.223273
1.68379
0.238104
0.0403338
1.07875
0.59175
0.0407377
0.519312
1.18277
0.030125
0.195024
0.0301771
0.0451782
0.0334922
1.46883
1.40148
0.031224
1.43898
1.69364
0.0319805
0.0314107
0.0301455
0.0304404
0.030138
0.0991122
0.0821698
1.29047
0.0334939
0.0303264
1.44337
1.21144
0.036159
0.190636
1.48187
1.18424
1.24436
0.229799
1.27293
0.387522
1.59261
0.0404361
1.11628
0.0356276
0.43251
0.0352638
1.34692
0.0784126
1.30322
0.0308282
1.03806
1.37224
0.0393185
0.0302858
0.0390505
1.61305
0.0303778
0.183793
0.060157
1.77373
1.59922
1.07999
1.423
0.278284
0.707651
0.708157
0.586916
0.667951
1.98639
1.65846
0.177744
1.63506
0.0312177
1.34376
1.28781
1.53818
0.0441868
1.41243
0.0504436
1.68491
0.0429283
0.364135
0.502692
0.0363019
0.0404622
1.28554
1.50601
1.71292
1.27547
0.0372352
0.345042
0.0560116
0.0488003
1.20351
1.63898
0.800899
0.0367053
1.26225
0.0317714
1.29608
0.0302792
1.68504
0.156588
0.411897
0.461398
0.0509065
0.0305992
0.0324226
1.39157
1.42025
0.0776509
0.187938
1.49562
0.19683
0.0764046
0.0523928
0.434932
1.23621
0.0480557
0.0370138
0.188072
1.72232
0.0301195
0.0300939
0.0302236
0.0302798
0.349126
0.0761477
0.0301509
0.09382
0.885606
0.319746
0.302371
1.04344
0.0937346
0.342026
0.315023
0.0304976
0.031864
0.0410713
0.312612
1.15657
1.36233
0.628552
1.27156
1.29721
0.0462414
0.427366
0.129861
0.85869
1.54714
1.67518
0.484056
1.61093
0.0673264
1.27836
0.140234
0.0300852
0.0358055
0.289718
0.0307553
0.069605
0.0883229
0.668607
1.11899
1.6276
1.46032
1.50847
1.42361
1.25464
0.664129
0.215234
0.230684
0.172577
0.0303726
0.0369668
0.0336512
1.63295
0.138967
0.151673
0.0305714
0.884172
0.238652
0.0556622
0.0406834
0.0304258
0.0323354
1.18262
1.29668
0.0883915
1.63903
1.65909
0.0301064
1.27187
0.0340257
0.283951
0.17242
0.181183
0.0835441
0.0486342
0.855566
0.237528
1.1598
0.0489104
0.0326338
0.923375
0.0433858
0.442763
0.134982
0.441937
0.162938
0.396888
1.74702
0.509576
1.43946
0.276287
1.46549
0.032671
0.0317301
0.246827
1.5811
0.0303616
0.0579646
0.3738
0.376067
0.0983656
0.701746
0.78896
0.359281
0.818507
0.176295
0.132091
1.58955
2.12949
0.650035
0.0311909
1.53257
1.08346
0.0304647
0.0301391
0.0324282
0.0303506
0.0307525
0.0336559
1.32005
0.0531697
0.0491255
0.868922
0.0417312
0.0465951
0.411798
1.65163
0.418552
1.02288
1.84915
0.216844
0.0369291
1.23732
0.162121
0.924475
0.225645
0.411846
0.0995568
0.0849172
0.130579
1.94957
1.33988
1.21163
1.68356
0.0557767
0.667125
0.754062
0.130747
1.54464
1.63331
1.58489
0.359798
0.864321
0.0301475
1.21476
0.713404
2.11018
0.586705
0.533236
0.0633359
1.39462
0.194481
1.43646
1.63736
0.0356864
0.0878397
0.0727314
0.0452111
0.0304338
0.291739
1.84079
0.0542439
0.0553289
0.906946
0.672624
0.0939662
1.49198
0.0939755
1.34913
1.23229
0.252361
0.0522842
1.78516
1.60523
0.0326724
0.771192
0.0357191
1.43813
1.36408
0.0733061
0.969544
0.634852
1.73392
0.208968
0.0635869
0.156705
0.0384733
1.1602
1.356
0.0367327
1.03167
0.0981897
0.213741
0.498204
1.49548
0.289916
1.43152
0.400415
0.0866796
0.138231
0.0490513
0.208208
0.571036
0.115577
1.40025
0.0532378
0.363701
0.0323277
0.0425307
0.0307843
0.0314146
0.404197
0.973373
1.14104
0.531791
0.718997
1.01051
0.030806
0.150837
1.71945
1.06163
1.80619
1.76709
0.976067
1.36242
1.34623
1.28048
0.0681004
0.0503356
1.20603
0.630416
0.143785
0.0301095
1.34414
1.34212
1.31193
1.83869
0.0333084
1.62363
1.52346
0.726277
0.239807
0.250061
0.311459
0.036531
0.305254
0.187814
0.0697418
0.0861968
0.0329671
0.128211
1.22013
0.0969889
0.176327
0.0687233
0.670569
0.0451137
0.0376815
2.18682
1.53334
0.171244
0.0303989
0.0301187
0.16022
0.112951
0.267426
0.0300989
1.38703
0.0966131
1.76922
1.85136
0.193856
0.032821
1.13858
1.4856
0.74249
0.969694
1.80821
0.308892
1.30261
0.24591
0.159215
2.11748
0.0301114
0.0334438
0.232544
0.156125
0.398715
0.398957
0.0310188
0.0328869
0.0402958
0.0357712
0.867981
0.0514597
0.0301054
0.839098
1.1393
1.30021
0.031087
1.02239
1.36906
2.17099
1.54549
1.75463
0.0301075
0.0366275
1.55981
0.0305307
0.191259
1.55194
0.298426
0.0304435
0.0453142
0.0994907
1.60024
0.0459722
0.187456
0.894569
0.227354
0.956383
0.590654
0.683239
1.2987
1.38596
0.21986
0.412708
0.0305961
1.48227
0.402345
0.0336973
0.0301987
0.0950038
1.524
0.267193
0.145223
0.677802
0.180612
1.38226
1.13423
0.170656
1.2512
0.924211
0.622919
0.0590962
0.0447396
0.138656
1.28602
0.0300903
0.337393
1.7212
0.588096
0.0323093
0.992819
0.0800634
0.0302942
0.967661
1.25588
0.0852634
0.0305189
0.0385455
0.160404
0.0300968
0.0353164
0.0316069
0.199498
0.229615
0.237498
0.0395047
1.2925
1.44336
0.950375
1.17659
0.492956
1.21605
0.226943
0.0395639
0.0313623
0.194813
0.251222
1.33636
0.0344961
0.99892
1.42352
0.0885562
0.039564
0.268165
1.59272
0.0454625
0.0394704
0.390144
0.0516451
0.447054
0.366274
1.55738
0.763559
1.49002
0.0333548
0.255412
0.175433
0.0669551
0.115856
1.77127
0.0710557
0.815702
1.36251
1.64286
1.21522
1.61641
0.142602
0.040855
1.52321
0.0601779
1.42276
1.09834
0.831883
0.937293
0.0923146
1.79354
1.18068
0.0754786
0.161399
1.93985
0.660891
0.0746726
0.775063
0.290009
0.259749
1.86689
1.36368
0.0696232
0.15565
1.38326
0.673638
0.305036
0.0321098
0.27083
1.54088
2.13831
0.716317
1.3765
0.0311675
0.231385
0.0305452
0.052863
2.02741
1.21738
0.0472229
0.0306969
0.861692
0.696634
1.16381
0.0304158
1.66536
2.03106
0.24883
0.476152
1.41139
0.235939
0.184933
1.38042
0.178975
1.08455
1.5929
0.0311296
0.227814
0.0403098
1.87919
1.46776
0.346109
0.59471
0.0367014
0.119433
1.31151
0.178104
0.258153
1.23329
0.118552
1.65659
0.0301276
0.0381373
0.293423