/*--------------------------------*- C++ -*----------------------------------*\
| =========                 |                                                 |
| \\      /  F ield         | OpenFOAM Extend Project: Open source CFD        |
|  \\    /   O peration     | Version:  1.6-ext                               |
|   \\  /    A nd           | Web:      www.extend-project.de                 |
|    \\/     M anipulation  |                                                 |
\*---------------------------------------------------------------------------*/
FoamFile
{
    version     2.0;
    format      ascii;
    class       volScalarField;
    location    "2000";
    object      nut;
}
// * * * * * * * * * * * * * * * * * * * * * * * * * * * * * * * * * * * * * //

dimensions      [0 2 -1 0 0 0 0];

internalField   nonuniform List<scalar> 
26307
(
0.000923968
0.000150766
0.000138513
9.9714e-05
0.000154809
0.000269917
4.68925e-05
0.000896831
6.95775e-05
0.00120263
9.34784e-05
0.00012447
0.000121538
7.63828e-05
1.34809e-06
4.64348e-06
4.16538e-05
9.27982e-05
0.000127932
0.00108256
0.00134142
0.000248418
9.13993e-05
0.000121708
1.70602e-06
0.000840469
0.00105482
2.85576e-07
0.000248162
0.00135367
1.18132e-06
0.000930568
8.51297e-07
0.000316082
0.000375354
2.83415e-05
0.00077564
0.000109896
8.29255e-05
0.00116682
1.36035e-05
5.79073e-05
0.00119788
1.01718e-05
5.22587e-05
6.31072e-06
0.000441493
0.000679593
0.00117813
0.000119921
4.85877e-06
0.00011685
0.000651054
0.000241847
0.000222095
8.72424e-05
0.00012276
7.3554e-05
0.000696563
0.000297428
7.59986e-06
2.42623e-06
8.34084e-05
0.000127469
0.00109792
1.75642e-07
0.000204997
9.25149e-05
4.08451e-05
0.000664717
0.000890377
1.01616e-06
0.00118203
3.70247e-05
1.22091e-05
0.00100936
0.00012249
4.3563e-05
0.00111666
4.20611e-05
1.93619e-08
0.000830457
3.02126e-06
0.000987452
0.000475516
0.000665711
0.000176052
8.73598e-05
0.000975143
4.97274e-05
0.00096307
7.52738e-06
0.00011913
5.79436e-05
6.58992e-05
0.00134568
1.22867e-06
2.54546e-06
0.00112064
0.000447809
2.80676e-06
6.27555e-05
0.000867198
0.000834297
3.70439e-05
4.80402e-06
7.24868e-06
0.000445038
0.000900837
9.58027e-05
0.00116368
5.69274e-06
0.000208415
0.00111162
5.70436e-05
1.35111e-06
5.74051e-06
4.08715e-05
0.00081677
0.000855854
0.00112869
0.000131636
2.44812e-06
4.05506e-06
2.34431e-05
8.35221e-06
0.00097754
6.55108e-06
9.0155e-07
5.87495e-07
8.46145e-07
1.55734e-07
0.00129605
2.54722e-05
0.000262157
0.000962451
0.000953505
0.00105119
0.00118025
0.000192426
0.00099475
0.000167596
3.74365e-05
7.84658e-07
0.000383398
0.00101164
0.000895217
0.000162998
1.27723e-05
0.000275973
0.00108788
1.07643e-05
0.000210583
0.00106832
0.00128382
0.00114547
9.86845e-05
3.56351e-06
8.90941e-05
2.02754e-06
4.00886e-05
0.00141419
9.07238e-05
0.00114576
0.000949902
0.00128017
0.000693185
0.00131196
2.29394e-05
0.000980704
0.00122508
0.00123395
0.000362402
0.0010273
7.07847e-06
0.000105884
7.20318e-07
0.00106023
0.00119963
0.000928941
2.80117e-05
1.15256e-05
0.00111737
7.27609e-06
0.00027523
9.39988e-05
7.25096e-05
4.19457e-06
0.000146279
0.000219281
0.000167995
1.9337e-07
7.06028e-05
0.00111064
0.000297939
6.26661e-05
7.10741e-08
0.00101101
2.13514e-05
0.00079701
5.75902e-07
0.00107562
3.39557e-05
6.98462e-06
0.000114162
5.97726e-05
9.68787e-05
6.68607e-07
0.00127825
1.54655e-05
8.76484e-05
0.00121952
5.48806e-05
2.70306e-06
0.000194465
0.000807536
0.000135693
0.00132763
0.00108634
4.0304e-05
0.00139259
0.000101735
6.66376e-07
0.00130457
5.34475e-05
0.000943278
0.000127509
0.00132413
0.000981439
9.19246e-05
0.00133696
9.307e-05
8.87584e-05
7.95518e-05
0.000430497
0.000255957
0.00055448
0.0001063
6.38536e-06
8.69096e-05
7.63054e-09
6.45032e-07
9.5088e-05
0.00136071
0.00125812
5.72701e-05
0.00109236
0.00098134
0.00129942
0.00116961
0.000162191
0.00116962
1.00074e-07
5.5039e-07
3.42224e-06
9.59549e-07
2.15182e-06
1.0444e-05
1.14609e-06
0.00132068
0.000694183
4.19931e-08
8.30478e-05
3.45268e-05
0.00111894
5.71975e-05
4.77264e-05
0.000717729
0.000404832
0.000198896
0.000840717
0.000938763
0.00117157
5.48542e-06
0.00115912
4.36599e-08
0.000280014
0.000112844
1.82164e-06
7.56713e-05
0.000243786
0.000432359
0.00113817
2.76731e-05
5.77375e-06
0.000917911
0.00012631
1.5258e-07
1.51126e-06
0.00101637
3.48644e-05
9.54549e-07
0.000937025
0.00056309
0.000594586
0.00133376
0.000187746
0.00021415
0.000530106
3.78869e-08
0.001309
3.92711e-05
0.000695861
0.000547777
4.52324e-05
5.93887e-06
1.3265e-05
7.79131e-05
8.81256e-05
2.71301e-07
0.00083661
4.55467e-08
8.35687e-05
0.000300309
7.87296e-06
9.10331e-06
7.57029e-06
0.000752882
0.000932312
2.78662e-05
9.15486e-05
0.00132311
5.15397e-06
0.000281395
1.9961e-05
1.05898e-06
5.35539e-06
0.00130339
0.000279425
0.00139288
0.000878937
5.25716e-06
1.04268e-06
0.000550957
0.00119374
1.60097e-06
0.00084435
0.000356971
0.00107119
0.00101599
1.48972e-05
0.000170645
0.00108013
0.00102574
2.70787e-05
0.000769996
0.000883395
0.000979381
0.00112227
0.001287
0.000531277
7.31562e-05
0.000116417
0.000147353
0.0011942
0.000625524
0.000233566
5.1028e-05
0.000115648
0.000614664
0.000517808
4.6978e-05
0.000638512
3.2076e-06
1.20597e-05
9.07793e-06
0.000156774
0.000630302
0.000164874
0.000874004
0.000902508
0.000793178
0.000259662
0.000910203
0.00130172
0.00130709
0.00062058
0.000789446
0.00132809
0.000107876
0.000973403
0.000263065
6.93859e-05
5.89502e-05
5.5377e-06
0.000930738
0.00107999
0.000950858
0.00104043
0.00116501
0.00087027
0.00053915
0.000139523
0.000203088
0.00100747
0.00110436
3.54321e-06
0.000175001
0.000144505
6.84821e-07
0.000161342
1.31791e-07
0.000149242
0.00010297
3.35e-05
0.00116254
0.000774304
4.21721e-07
0.00057434
3.65152e-06
3.86422e-05
5.93214e-05
0.00113833
0.000564684
2.50383e-05
0.000265143
1.0937e-05
2.49607e-05
3.67583e-06
0.0010861
5.23566e-05
3.39184e-06
4.46868e-07
1.57669e-06
0.00115517
0.000831931
4.09069e-06
4.12061e-05
0.00105944
7.8126e-06
0.000611335
0.000160369
0.000981118
0.00077026
4.67845e-06
0.00112443
4.17129e-06
0.000495513
0.000528682
0.000558815
3.90837e-05
0.000708532
7.4437e-06
0.000266955
0.00105262
1.14616e-05
0.000302545
0.00114755
8.40261e-05
0.000392535
0.000976375
3.86295e-07
0.00118068
0.000170058
0.00106468
0.00110783
0.0013713
9.78828e-05
0.000142765
1.67281e-06
0.000157261
9.8236e-08
6.32135e-06
0.000477009
0.000562358
0.00103096
1.53503e-06
3.83491e-06
7.06672e-05
6.0115e-05
0.000424793
0.00023647
0.000513786
0.000623404
0.000772234
0.000696992
4.80032e-05
0.000469226
4.80816e-06
1.17479e-05
0.000737633
0.000117618
7.6974e-05
4.76727e-05
0.000178414
0.000636246
0.000551486
3.38384e-06
0.00106179
6.15284e-05
0.00151719
0.000948321
0.000707205
7.67598e-06
0.000103769
0.00125012
0.000661578
0.00085601
5.37779e-05
1.81409e-07
0.00106213
0.00134897
0.00107373
1.42601e-09
0.000855752
0.00122656
0.00117276
0.00010432
0.00129901
0.000492191
1.04089e-07
1.81461e-08
5.81737e-07
3.90586e-07
0.000712912
9.54719e-05
9.51266e-07
0.00129374
0.001034
0.00017864
9.70735e-07
0.000216782
0.00103721
2.67156e-05
0.000138722
0.000114217
1.12375e-05
0.000585222
0.00123791
8.83182e-05
0.000859335
0.000534142
0.000957393
8.99462e-05
4.40722e-07
0.00062199
2.10011e-06
0.000118237
0.00155777
1.12152e-05
0.00113584
0.00056682
0.000142033
0.000695981
0.000345596
0.000834527
2.12115e-05
0.000857802
3.1206e-06
0.00131549
2.52257e-06
0.000730133
4.57232e-06
9.8309e-05
4.4315e-06
0.00125615
0.00106902
0.000306208
0.000351411
9.94541e-07
0.000392623
0.000460009
0.00126214
2.99152e-05
5.49339e-05
0.000799723
2.2587e-06
0.000117015
8.63613e-05
0.00140194
1.73219e-07
3.45594e-06
0.000131469
0.00018365
1.02662e-06
2.96123e-06
2.17975e-07
0.000585028
0.000502993
0.000111342
0.00118334
0.000484605
8.34698e-05
4.03507e-07
3.79897e-07
0.000598418
0.000710474
0.0011301
7.35121e-06
1.2972e-06
6.80086e-06
0.000982776
1.57131e-06
1.11071e-06
0.000205097
0.00119346
0.00102634
0.00123361
2.56325e-07
1.03017e-05
0.001418
0.00052066
0.000793432
4.05481e-05
0.000855391
4.33689e-06
1.2171e-06
1.16514e-07
2.997e-08
2.00416e-08
1.20715e-09
4.98683e-09
0.000227624
0.0001024
0.000933452
0.00132736
0.00124884
0.000910284
8.80993e-05
3.97017e-05
0.000620212
0.000458444
5.398e-05
0.00107544
0.00124767
0.000908407
0.00112877
0.00111002
1.54213e-05
8.96747e-05
0.00035438
0.000725627
5.37315e-08
0.0011113
0.000551787
1.10206e-07
0.000918381
0.000664516
0.000767893
0.00012139
0.0011792
9.11295e-05
0.000814065
4.25016e-05
0.00101157
0.000510115
0.00122266
0.00102523
0.00128905
6.6258e-06
0.000530256
0.00115866
1.50055e-05
7.45819e-05
0.000961042
0.00106157
0.00114114
1.07136e-06
9.218e-05
1.95983e-06
0.0010606
3.44267e-06
0.00108585
4.25946e-05
0.00116267
0.00101585
5.95825e-05
0.000125418
6.37375e-06
0.00107062
9.40885e-05
0.000137366
1.26615e-05
1.08781e-06
0.000239442
3.89504e-06
0.000188693
0.00115536
7.68701e-05
0.000153525
0.00118113
0.00146803
2.14514e-07
6.17283e-06
0.000149985
0.000143022
3.60583e-07
7.89947e-05
0.00053759
0.00108282
0.000142993
1.02478e-06
0.000654228
4.56556e-05
0.000143262
7.10422e-05
3.84746e-06
1.66901e-07
0.000733789
2.50861e-06
0.000808432
1.71301e-06
0.00142646
3.65371e-06
8.66454e-09
8.22665e-05
0.000965639
0.00120131
0.000653692
0.000244187
0.00145537
0.00115772
0.00116181
0.000130487
0.000112451
0.000967004
0.000376407
0.000531114
0.000985502
8.32023e-05
0.0012053
0.000261754
0.00112831
0.000931187
0.00118625
1.01502e-05
0.000165426
0.00116442
0.00141867
2.37016e-07
7.24986e-05
6.36733e-05
0.000991838
0.00057508
0.000950799
0.000103926
0.00133191
7.51542e-05
0.00111866
0.000178805
0.000674768
2.72838e-05
0.000901304
0.00010054
0.000788779
0.00124269
0.000720596
0.000201976
0.000181376
0.000157179
8.54101e-08
0.000129397
7.73184e-05
0.00131822
0.00123474
0.000298824
0.000264492
0.000652472
0.00141334
4.37688e-05
0.00111288
0.000515534
4.93009e-10
3.23566e-06
2.16739e-06
2.77057e-05
0.00119839
0.000113945
0.00114288
0.00111364
0.00099302
0.00131517
0.000270049
0.000251982
7.13613e-05
0.000590332
8.6149e-05
9.36765e-05
0.000583652
0.0012241
9.90079e-06
2.90692e-05
1.21706e-06
8.38454e-05
3.68039e-07
3.76365e-05
4.52821e-07
2.64717e-05
0.000966201
0.00106779
4.85043e-05
1.33297e-06
0.00157768
0.000104576
0.00114856
9.71559e-05
0.00013614
0.00133949
0.000648241
2.98299e-05
0.000850573
0.000197429
0.00089825
0.00112396
0.0011949
1.17189e-05
0.00125427
3.67983e-05
0.000139516
7.94909e-05
5.20733e-06
1.16098e-06
0.000680164
0.000187355
0.00114472
0.00061979
0.00147691
0.00108972
0.00116307
6.99907e-05
0.000850066
0.00133916
9.09927e-05
8.23062e-06
1.03126e-05
0.000846036
4.11056e-05
4.88171e-08
1.65648e-06
0.000268136
0.000229264
0.00175601
0.000288566
0.00103971
0.00118644
0.000118421
1.4601e-08
0.00122053
0.00146576
2.84295e-06
1.40267e-06
6.68318e-05
0.00123439
2.54802e-06
0.000991432
0.000910627
0.00114712
3.7383e-05
0.000597366
0.000796836
4.43054e-06
0.00118376
0.00134505
0.000965968
0.000162765
0.000794168
0.00113036
0.000108511
9.85843e-05
2.72869e-06
2.77994e-06
0.000110695
0.000492974
2.37797e-09
6.43147e-06
0.000970535
0.000989656
4.25419e-06
0.000492557
5.16995e-08
1.59805e-08
3.56607e-09
9.46538e-08
2.61384e-07
2.61672e-06
1.37805e-06
5.06958e-07
0.000645523
0.00125329
0.000701458
4.11305e-09
0.000307313
2.76771e-06
0.000160585
0.00101832
0.000872738
0.00113059
0.000262969
3.25402e-06
5.10895e-06
0.00012537
2.05777e-06
0.00139998
1.56273e-05
1.38954e-05
0.00109742
0.0009981
9.06568e-05
0.000770811
2.98495e-06
0.00119796
0.00158084
1.13629e-06
0.00116573
0.00117563
6.78626e-05
8.60809e-05
0.000196287
9.02661e-05
0.000558875
8.5895e-05
4.43741e-07
7.75959e-05
0.000184491
4.18684e-08
7.53427e-06
4.27013e-06
4.04904e-05
0.00079272
0.00146323
2.12276e-06
0.00122203
0.000167103
2.4397e-05
0.000929869
0.00112941
0.00112731
3.43074e-07
0.00105894
4.57642e-06
3.82324e-05
0.000219944
7.18473e-05
0.00127719
0.000497747
0.00117463
2.76866e-06
0.000157231
4.43957e-05
0.00105218
0.000112751
0.000556832
0.000403616
2.24499e-05
7.58429e-05
2.01518e-05
0.000985057
3.42451e-07
0.00016098
0.00107551
0.0010295
6.70188e-07
0.000550479
0.00112545
0.000623688
0.000248118
7.56005e-07
0.001106
0.000489713
0.000652878
0.000440269
0.000144508
0.00115093
0.00100723
0.00114032
0.000116859
5.44452e-05
0.000446702
4.55675e-05
1.01896e-05
1.95261e-06
2.75501e-06
0.00113922
9.24415e-05
0.000292227
1.4533e-05
3.0938e-06
1.49422e-06
6.13233e-07
1.14008e-07
3.74203e-06
0.000751936
0.00101263
0.00115208
8.65039e-05
5.48963e-05
2.25387e-08
1.0353e-07
0.00122748
4.32075e-05
0.00027084
0.000137534
0.000242555
0.0012112
7.57771e-07
0.00109359
0.000774458
8.43426e-05
0.00125746
0.000480596
0.00103465
0.00112226
4.18135e-05
0.00013048
0.00155324
6.47797e-09
0.000112163
0.000759772
1.02116e-06
5.45197e-05
4.70708e-05
0.000374701
0.000475631
0.000173055
8.79126e-09
0.000104915
0.00012148
1.61758e-10
2.19427e-05
6.7723e-06
5.55952e-05
5.39388e-05
8.32537e-05
0.00165712
0.00111669
2.59073e-06
1.24245e-06
0.000368782
0.00123289
0.000452333
0.00121658
2.37128e-05
0.000603356
0.000910631
6.0512e-08
3.8716e-05
0.000630676
0.000143632
0.000563325
2.62988e-05
0.00131421
0.00157165
0.00010703
3.27793e-05
4.85459e-05
0.00124756
3.28224e-05
0.00109433
0.0011301
4.90182e-07
1.28287e-05
0.000120582
2.55474e-05
0.00102464
0.00112711
0.00111312
0.00119756
0.00143814
0.00113903
0.000784077
1.29812e-08
0.000651682
1.30482e-06
0.00119339
2.82642e-07
0.00115802
3.29795e-05
0.000772208
0.00118058
8.91859e-06
0.000700097
0.00131447
0.00115805
0.000941025
0.000127787
1.95919e-05
0.000589255
1.05169e-08
0.000126929
5.67265e-06
0.00121636
4.95578e-07
0.00010525
8.67554e-08
0.00119655
0.000635977
0.000253579
1.11019e-05
4.15922e-05
4.85821e-07
1.83837e-06
0.00108144
0.000911029
2.96482e-05
0.000262899
0.000190365
0.00132481
5.38415e-05
2.66862e-06
0.000890299
0.00134985
0.000894889
0.000525624
8.90124e-05
0.000566117
0.000217812
0.000440625
6.20277e-05
0.000254521
3.01131e-05
0.000642677
0.000350129
0.000598157
3.05076e-05
0.000862805
0.00109296
0.0012084
0.00113255
4.68533e-05
5.0832e-06
0.000129111
0.000104919
0.00119521
0.000236581
0.00176071
0.000205202
0.000492246
0.000692509
0.000164297
6.23862e-05
0.00130908
3.91359e-06
3.14383e-06
0.00130881
8.48544e-07
0.000943666
0.000268493
0.000523678
9.48434e-05
0.000119699
0.000117827
0.00118288
8.98774e-07
0.00109608
0.0014896
3.43115e-05
0.000763485
2.6341e-05
0.000542773
0.000922142
1.61841e-06
0.000561199
0.00118212
2.66434e-06
0.00112413
0.000643931
5.15432e-05
0.000421084
0.00163325
0.000473856
0.000275749
3.96647e-06
0.000635691
0.00137721
5.10495e-05
5.87773e-06
0.00158679
0.000379296
0.00076201
0.0013578
0.000461093
0.000569958
0.00012431
0.000355496
1.40209e-05
0.000100616
0.0011372
0.000766714
0.000105613
9.63684e-05
0.000125451
0.000161463
9.72047e-06
0.00128985
0.00116121
0.0011322
0.00158534
0.0011182
0.000649813
0.000408338
0.000489372
5.1473e-05
0.00103432
0.000233057
0.00118447
1.50002e-05
1.28393e-09
1.28553e-05
0.00128666
0.00102955
0.000678804
5.70433e-05
0.00102583
0.000295437
0.000390686
0.000816953
0.00024706
0.000190255
0.000201387
0.000182188
0.00126501
0.00111611
4.82275e-06
6.23632e-05
0.000955517
0.000997302
0.00125561
3.4977e-07
1.1523e-06
6.43661e-06
3.5072e-07
1.60178e-06
9.74245e-06
1.45002e-05
2.52067e-05
2.48163e-05
2.40171e-06
0.000241205
0.00126633
0.000807837
0.000473023
0.00172871
7.0237e-05
9.72197e-05
1.29223e-05
1.07686e-05
1.42526e-06
0.00113329
0.00101905
5.7575e-05
0.00147264
0.000208265
0.000197291
0.000334752
2.62373e-05
4.17748e-06
0.00168427
0.00100798
6.96938e-05
0.000469396
6.37053e-06
0.000101955
0.000231475
0.000219349
9.08386e-05
0.000837308
0.000142146
8.96318e-08
0.000990987
0.000795578
3.17123e-05
0.00101728
0.00131734
0.000470434
3.21928e-06
0.000652502
0.00101598
9.13026e-05
9.7532e-05
0.00112002
6.06941e-05
0.00117717
0.000838425
0.00119795
3.28268e-06
0.00014211
1.47579e-05
0.00016483
9.19139e-06
9.26839e-06
3.59517e-05
0.000107854
0.0012638
0.000398681
0.000998439
9.60422e-05
5.66932e-07
0.000526841
1.28334e-06
0.000669633
0.00116391
0.000623469
6.13287e-05
0.000861965
0.00110777
0.00125309
0.00148321
1.69216e-05
8.52364e-05
0.000547051
0.00123954
0.000232039
0.0010096
0.000769983
0.000751089
0.00105744
3.1374e-05
0.000486261
0.000159584
8.11813e-05
0.00017585
0.000151617
0.000869766
4.25415e-06
1.37543e-05
1.96289e-05
0.000171973
0.000101922
0.000136964
1.1169e-05
4.75323e-05
5.3829e-05
0.000896923
0.000697421
4.60788e-08
6.88161e-05
0.000810891
0.00110875
6.01405e-05
0.000923218
0.00120399
5.41741e-07
2.3564e-06
8.4744e-08
0.000135503
0.000751554
0.00110068
6.01765e-06
0.000383813
0.00043389
1.31604e-06
0.000171928
0.00118986
0.00108717
7.80003e-05
0.00130039
1.73039e-07
0.000300237
0.00169831
1.14455e-07
4.87574e-09
0.000460401
0.000928173
0.00113312
0.00116594
0.00049479
6.57519e-07
0.00096961
1.50065e-06
0.00083844
9.88295e-07
3.42068e-05
0.00181293
2.80754e-05
0.000341979
0.000435911
0.000123198
3.02221e-05
0.00103663
4.51157e-05
1.06863e-08
4.9102e-05
0.000849406
4.1529e-05
0.00112479
0.000201377
0.00173395
0.000914737
0.00073521
5.49055e-06
0.000211419
0.000971744
3.25701e-06
0.00104652
0.00126316
0.000164607
1.88736e-06
0.000641891
8.19571e-05
0.000618848
4.48183e-05
0.000282147
0.000342575
1.0755e-05
3.95906e-05
0.000120307
0.00100298
0.000568755
3.14942e-07
0.000496535
9.90806e-05
3.46473e-05
0.000589251
2.88287e-06
0.000101066
1.30139e-06
0.000294807
0.00018617
0.00019332
0.00011047
7.64327e-07
0.000504435
0.000559219
3.66022e-06
0.00155297
0.000994159
3.09901e-06
4.91375e-05
7.57872e-06
0.000436826
0.000451725
7.39444e-05
0.000948503
4.06891e-05
0.000379841
0.00126108
0.000685151
0.000684757
1.17301e-06
0.000103054
0.00101821
5.83419e-05
3.93098e-05
0.000915735
0.000152051
2.58458e-07
0.00115104
1.46588e-07
0.00114253
0.000293297
0.000342498
0.00185002
0.000842167
2.87434e-07
0.000541021
9.64597e-06
1.09634e-05
0.000606629
0.0004515
0.00037801
0.000542301
0.00081421
0.000922204
9.44805e-06
0.000557397
6.54451e-05
2.79289e-05
0.000623515
7.09266e-06
5.89939e-05
0.00115555
0.000826769
0.000856891
7.02401e-06
2.524e-05
6.9311e-06
0.00116095
0.00114444
0.000107082
2.25213e-06
0.000310496
5.42406e-06
1.18625e-10
9.90885e-05
0.00073745
0.000275792
0.000252364
0.00114994
0.000135419
0.00152871
0.000480719
9.1387e-06
1.1391e-06
6.95404e-05
4.42816e-06
0.000205851
0.000283705
2.51333e-05
0.000148132
0.000961819
0.000442961
0.000778044
0.000349677
0.000853217
0.000120611
3.81519e-06
0.00117403
2.70284e-06
0.00115094
0.000385277
0.000554966
9.94224e-05
0.000176296
0.00018339
0.00017199
1.36004e-05
2.60079e-05
0.000419611
0.00016051
0.00010413
0.00122747
4.35425e-07
0.00109328
6.96644e-06
0.00171846
4.49585e-05
0.000783928
0.000283945
0.0011864
1.16293e-05
0.00113967
0.00102678
1.67059e-06
1.1711e-05
2.28439e-05
0.0015742
0.000177288
9.69185e-05
0.000507353
5.85958e-07
0.0008596
6.19937e-05
0.00106124
7.85844e-05
0.000738523
0.00132164
0.00133845
8.652e-05
0.00107248
0.00109684
0.00111166
4.78854e-05
0.000870954
0.000712053
2.25899e-07
8.88312e-05
0.00103738
2.12045e-06
1.38024e-06
0.00114458
0.001168
1.20752e-06
4.84836e-07
0.00109309
0.000605767
0.000121213
0.00133579
5.12912e-05
0.000113069
4.74241e-06
4.4583e-06
0.0011382
0.000452187
0.00117199
0.00103811
2.97857e-07
0.000118571
0.000207853
0.000205803
5.83347e-05
0.000924431
0.00085061
0.000142936
0.000364421
5.45622e-05
1.60405e-06
2.31483e-05
5.5187e-07
5.25159e-05
0.00013098
9.09949e-05
4.28663e-05
6.05246e-06
0.000119311
0.000437754
0.00052158
7.73569e-06
0.000107258
0.0010998
0.000144064
0.00109425
0.000241649
0.000181709
5.85618e-05
0.000978683
0.000756254
0.000107321
2.19288e-05
0.000271688
0.000123381
0.0011463
0.00112345
0.0011044
0.000792898
0.000816747
0.000269544
0.00151925
6.83324e-05
0.00112159
0.00103014
1.60879e-05
0.00116424
0.00124877
0.000100121
8.94354e-08
0.000743835
0.000138206
0.00166799
0.000130959
0.000606095
0.000717972
7.31399e-05
0.000642719
0.000285666
0.000343383
6.26135e-05
9.14074e-06
5.26717e-07
5.02004e-05
1.25505e-05
0.000952777
0.00133664
8.24824e-06
8.96564e-05
0.000163566
0.00102887
0.000255961
2.86041e-07
0.000218328
0.000987239
0.000297038
0.000258453
0.000722017
9.85291e-05
1.02783e-05
1.09376e-05
0.00040698
0.000473624
5.8194e-05
0.000301211
6.28982e-07
0.00112694
0.00014302
0.000143282
7.01085e-05
2.88106e-08
0.00077374
0.000171309
0.000154662
0.000741569
0.00104912
3.92692e-05
0.000785786
0.000643049
9.74013e-05
0.00104709
1.27002e-05
1.59399e-05
0.000684934
8.20249e-07
0.000378101
0.00107429
0.000100418
0.00085387
0.00159081
0.000337591
0.000441878
2.15073e-06
3.53763e-06
0.00120141
0.000272543
0.000136826
1.65596e-05
3.11355e-06
0.000107682
0.000907688
2.27331e-05
0.00114571
6.1126e-05
0.00134742
0.00184465
0.000222912
3.48497e-05
0.000306694
0.000390512
8.80317e-08
4.65783e-05
2.83023e-05
5.20337e-05
1.56156e-09
6.10631e-06
0.000607613
0.000126148
0.000107886
0.0010578
3.00126e-07
1.01716e-05
1.82889e-05
0.00082135
2.65712e-05
0.000103584
0.0015993
1.86372e-08
0.00108521
8.95139e-05
0.000960525
0.000125256
7.30989e-07
4.38483e-05
0.000751947
8.69251e-07
0.000150088
0.000195637
0.000221911
4.53983e-05
9.13072e-05
0.00132768
4.01499e-05
0.000149329
2.07669e-08
6.13606e-05
0.00107037
5.96381e-05
0.0012259
0.000130909
0.000459353
0.000533163
9.77214e-07
1.51218e-06
5.04036e-06
3.39231e-05
0.000634681
3.65882e-05
0.00111392
0.000149836
4.65848e-06
5.36439e-06
2.96903e-07
0.00125949
8.25756e-06
5.02029e-05
5.5352e-06
3.4383e-05
0.00126381
0.000966449
3.07762e-07
4.64423e-07
8.37081e-08
1.62612e-08
1.98133e-08
1.84178e-08
1.15164e-09
4.25615e-09
0.00113268
0.00110563
0.000658013
0.00120653
2.47856e-06
2.94119e-05
0.000277959
2.96266e-05
0.000853153
1.15102e-05
6.58434e-07
0.000762733
8.99974e-05
1.99156e-07
0.00115414
3.54657e-05
2.42354e-05
3.07428e-06
1.764e-05
0.000879509
5.10186e-05
0.00123646
0.000183869
4.15808e-05
0.000866234
4.14877e-05
0.00124712
0.00123352
7.66828e-05
0.000861532
3.05495e-06
3.88683e-06
0.00130012
0.000103201
0.00013767
0.00115665
0.00076509
7.08599e-05
4.90499e-06
0.00181731
0.00112661
0.00115181
0.000336561
7.67514e-07
0.000103904
0.000142164
6.09622e-05
1.55664e-05
5.31713e-06
1.65328e-07
0.000229128
3.32662e-07
0.00112846
0.0017115
0.00058958
0.000193137
1.95175e-06
3.56616e-05
4.90284e-06
0.00142242
1.56904e-06
0.000446719
0.00101016
3.73482e-05
7.85022e-06
0.000118468
8.14456e-05
1.44231e-06
0.000112744
0.00103162
4.84224e-06
5.93739e-05
1.77452e-06
5.90193e-07
1.12414e-06
2.67733e-06
4.95776e-07
8.28524e-05
0.000148549
0.00109086
5.89981e-05
0.000959928
4.76115e-07
4.20044e-06
4.11613e-05
0.000111355
9.79532e-05
0.00153717
4.4421e-05
7.13659e-05
8.39996e-05
9.66347e-06
0.00126144
1.13659e-07
0.000948126
0.000249042
0.000255568
0.00121167
0.00043902
0.000531313
1.58392e-06
1.22637e-05
2.24541e-06
6.12715e-08
3.88123e-07
3.07872e-06
3.56829e-06
1.6071e-05
0.000191612
0.00120017
2.57894e-06
0.00055867
0.000662016
0.000141906
0.00123755
0.000136801
0.000122976
0.00117294
2.04124e-06
0.000849918
0.00113008
9.6673e-05
2.02913e-05
7.63881e-05
0.000106208
0.000933383
0.000859523
2.81699e-05
0.000879393
0.00109814
0.00127357
0.00118125
2.02806e-07
0.000275647
2.32808e-07
5.15547e-05
0.000916857
4.07447e-07
0.000841336
4.86817e-06
0.000911355
0.000160374
0.00113368
0.000207232
9.56325e-05
0.000837561
0.000844224
0.00093427
0.000146555
2.90295e-06
0.00014201
0.000258916
3.39872e-05
2.30449e-05
0.00175391
1.83514e-06
1.67601e-05
0.00113598
0.000196511
0.000498453
6.03878e-05
0.00107102
0.000978608
0.00106494
0.00125827
7.82868e-08
0.000151699
7.91551e-05
1.9808e-07
1.05105e-09
0.000196668
0.00142106
4.31139e-06
0.000419689
0.00125776
2.75375e-07
0.000858416
5.4911e-05
0.00115062
0.000116462
0.000159867
0.000582609
8.55631e-05
1.51011e-05
0.00097547
0.000894765
9.63473e-05
0.00023049
8.92389e-05
0.000217019
0.00107789
3.29632e-06
5.40872e-07
0.00100235
0.0010722
0.0010493
0.00103121
0.000541198
6.42692e-05
3.52185e-05
8.96788e-05
0.000341282
0.00120066
1.22599e-05
3.8186e-05
0.0006614
0.000554578
0.00041863
0.00010799
4.06474e-06
3.50488e-06
5.4855e-05
6.38859e-06
3.95963e-06
0.000149418
0.000878082
9.56036e-05
0.000903064
0.000670157
2.57529e-05
0.000258225
0.000996912
3.6337e-06
0.000232765
0.000331919
0.000302213
3.13858e-06
0.00104308
0.00111322
4.93302e-05
0.00116161
0.00023864
0.000283315
0.00119972
0.000408334
0.000499138
0.000109865
1.51525e-05
0.00103446
0.000799406
2.59976e-05
8.92198e-06
9.31598e-05
0.000113747
0.00133942
7.49083e-05
4.34705e-05
0.000160239
2.84892e-05
0.00123466
0.000958347
0.000640965
0.00161016
2.50304e-08
3.08377e-05
3.2461e-05
0.00132583
4.01672e-07
0.000328523
0.000338743
0.000963228
6.28522e-05
5.28745e-05
0.00116076
0.00129531
7.44227e-05
0.000890359
5.19303e-06
8.66049e-05
0.00104216
4.59256e-06
4.90091e-06
0.00119009
3.75094e-05
2.29724e-05
0.00088634
1.48136e-07
0.000829322
0.00103079
9.67524e-05
0.00117846
0.000175526
0.00117994
0.000771637
0.00126952
4.40152e-06
0.000540838
0.000144684
1.33838e-05
0.000773272
0.00010049
0.000643248
8.77964e-05
4.9732e-06
0.000772523
0.00106464
3.93614e-05
0.00118334
0.000249058
0.000218698
0.00015398
0.000603884
0.000499638
2.92967e-09
0.00133387
0.000568745
0.00105926
4.95654e-05
4.55704e-05
0.00127179
0.000913273
0.000906307
0.00103057
0.000921312
0.000773148
0.00113514
7.11638e-07
5.13429e-07
0.000958077
1.15885e-08
1.26533e-07
0.000749838
9.77696e-06
0.000124824
0.000111571
2.4328e-05
4.09641e-05
4.28069e-05
0.000555843
8.18948e-05
4.16228e-05
3.57059e-05
0.000839271
0.000193992
1.32891e-07
8.60238e-07
0.000827919
4.20592e-06
9.74976e-05
0.00130655
8.42166e-07
0.000251324
0.000110658
3.13165e-05
2.59215e-08
9.64024e-05
1.90781e-05
0.000942265
2.9991e-05
4.09889e-05
0.000754594
0.000847903
0.000280542
1.95144e-05
0.000118753
1.02241e-05
0.00116663
5.01671e-06
3.29887e-05
1.05569e-05
2.4208e-06
5.40087e-06
8.12794e-06
0.00133814
0.000155071
0.00125562
3.89643e-05
0.000100286
0.000460873
0.00112205
9.81791e-05
0.0010206
0.000896318
0.000339344
0.000456637
0.00053917
0.00181157
2.65158e-06
7.01296e-05
0.000293629
0.000473061
0.000379631
0.00013721
0.000164328
0.000117292
1.86322e-09
0.00100423
0.000774765
1.45069e-05
7.81082e-07
0.00124322
0.00127381
0.00117375
4.13662e-06
0.000829062
0.000258689
0.000833473
1.63091e-07
4.4755e-06
0.000160721
0.000104646
0.000506126
9.98574e-06
3.22059e-06
2.02373e-05
0.0011344
4.09726e-09
0.00117428
2.05279e-07
0.0014035
0.000142671
0.000547749
0.00124708
8.6176e-05
0.000179741
0.000265807
3.56339e-06
5.09988e-05
3.00549e-05
1.17841e-05
3.87186e-06
8.75895e-05
5.65186e-06
0.000997996
9.76567e-05
5.74776e-05
3.17192e-05
1.18057e-05
0.00126996
0.000419901
0.00126313
0.000138169
0.000640357
3.47278e-07
0.00093572
0.000920967
0.00109546
0.000123275
0.00104517
0.0002003
0.00105501
0.000696943
1.04276e-05
2.41851e-05
0.00118811
7.00566e-05
0.00102603
0.00115354
2.27069e-05
7.07792e-06
0.000124183
0.000253552
0.00166341
0.000388985
8.11756e-05
6.72717e-05
1.18509e-05
0.000107668
8.8059e-05
1.11793e-06
0.00113303
0.000124472
0.000905704
0.000110245
5.16417e-05
0.00121474
0.00110952
6.82649e-05
7.51956e-05
6.76364e-06
1.50469e-06
6.9042e-05
0.000893603
0.00047693
6.13481e-07
0.00100013
0.000751418
0.000109603
1.96922e-07
1.87437e-07
0.000964899
0.000723823
0.000806246
4.44105e-05
0.00112352
0.00162714
5.20623e-05
0.000137094
0.000102534
0.000885823
1.46589e-05
1.14464e-06
0.00120741
0.00119037
0.000122841
8.49677e-05
0.000166682
0.00108808
0.00127305
0.00129818
1.40847e-05
8.85118e-05
0.000707107
7.69175e-05
4.10962e-06
0.00113005
0.00060773
6.28832e-06
1.69048e-07
2.31501e-07
4.45549e-08
4.88053e-05
3.51089e-06
0.000112467
0.000181999
0.000846116
4.39622e-06
0.00105534
4.77847e-05
0.00127507
5.81876e-09
4.35808e-05
1.01925e-05
0.00097201
0.000986122
0.000960399
0.001203
6.09329e-06
0.0011437
1.76416e-06
0.000152008
0.00122104
0.000647966
1.5105e-06
4.08575e-05
2.44584e-06
0.000483534
0.000759467
0.00111473
0.000625149
0.000894679
9.18346e-07
0.000183203
0.00122075
0.00159019
0.000413207
0.00106167
4.01765e-08
4.09496e-06
0.000969024
7.9059e-07
0.000855514
3.08348e-05
2.46154e-06
5.29017e-06
1.12456e-06
7.56615e-07
2.63862e-05
0.000546377
0.000985127
4.63521e-08
7.66129e-08
1.2964e-08
2.68146e-09
0.000453608
0.000306631
3.03464e-05
0.00114339
0.000926369
0.000433074
3.8982e-05
5.32223e-05
0.000162955
0.000890963
0.00080181
0.000810139
9.63223e-05
0.000932387
1.13847e-05
8.00092e-08
0.000685573
0.00104549
4.56006e-06
0.00100338
0.000872703
5.31113e-07
0.00105338
0.00113734
0.00163055
0.000111767
0.000176751
0.00158734
0.00116677
0.000469756
0.0008389
0.000506692
3.67064e-05
0.000352331
0.000437543
2.78952e-05
0.00164108
0.000167952
9.63348e-05
0.00105395
1.34182e-06
0.000936502
7.23909e-05
7.56872e-06
4.1811e-05
0.00115364
0.00101169
0.000896664
8.21509e-05
0.000301542
0.00108021
0.000765018
0.000911093
0.00108252
0.00110698
7.57642e-05
0.00106507
0.000713678
0.000123575
1.01562e-06
7.08432e-05
0.0016356
0.00114112
0.000863886
2.30319e-06
5.24467e-06
0.000942648
3.52182e-09
0.000951129
1.36861e-07
0.000658226
0.000363878
0.00119227
0.000943781
0.00103077
0.000973999
0.000129439
2.05483e-05
0.000206686
0.00012429
3.86295e-06
1.76288e-06
5.09457e-06
5.29414e-06
0.000384587
0.00096474
0.00127591
0.0011276
3.03808e-05
9.81568e-07
2.86245e-05
0.000976211
0.000221161
8.53335e-05
0.000124332
3.96216e-08
2.43802e-06
0.00133699
0.00110023
0.000485633
0.000132612
0.000925811
1.93152e-05
0.000748301
0.000786654
0.000697233
0.000659297
0.000402378
0.000273723
0.000102167
0.000456457
3.74406e-05
0.00102914
5.95685e-06
0.000573895
1.97656e-06
1.40211e-06
5.25358e-08
3.54998e-07
9.58995e-05
0.000135735
0.00102163
9.69907e-06
0.000189154
0.000991364
2.93286e-05
0.000886604
3.53976e-05
8.91627e-06
0.000230652
5.90392e-06
0.000822339
0.000182123
0.000844513
0.00100877
0.00175615
2.33453e-05
0.000997258
0.00087782
9.48426e-06
9.80751e-05
3.04863e-05
4.57046e-05
0.000995404
4.09657e-06
5.66511e-06
2.34719e-05
2.00512e-05
2.57659e-05
0.00101788
6.43165e-05
0.000714877
0.000893994
1.22642e-08
0.000142352
2.81479e-05
0.00108795
9.02151e-07
0.000906952
0.00014412
3.95539e-05
0.00102205
2.3196e-05
0.000969804
0.000139929
0.000946474
0.000189622
0.000880154