/*--------------------------------*- C++ -*----------------------------------*\
| =========                 |                                                 |
| \\      /  F ield         | OpenFOAM Extend Project: Open source CFD        |
|  \\    /   O peration     | Version:  1.6-ext                               |
|   \\  /    A nd           | Web:      www.extend-project.de                 |
|    \\/     M anipulation  |                                                 |
\*---------------------------------------------------------------------------*/
FoamFile
{
    version     2.0;
    format      ascii;
    class       volScalarField;
    location    "2000";
    object      omega;
}
// * * * * * * * * * * * * * * * * * * * * * * * * * * * * * * * * * * * * * //

dimensions      [0 0 -1 0 0 0 0];

internalField   nonuniform List<scalar> 
26307
(
3.23047
2.50015
6.12008
2.49414
4.75089
2.99066
3.11668
6.4742
3.11669
4.2002
20.9
17.0328
2.04574
6.90241
8.78074
4.66925
32.0619
5.88224
2.21523
6.76408
1.88721
8.38551
3.42921
5.86979
10.3689
5.18151
4.20837
2.64526
2.98095
1.93933
7.09607
6.44957
2.58646
3.23355
3.755
37.45
4.83762
2.05545
1.90385
4.88383
3.63662
6.42686
1.90647
1.79818
8.6589
16.2046
3.41235
5.97681
5.8222
1.52551
6.6062
1.41332
5.60835
3.05624
2.63437
13.3845
6.91122
3.42458
6.18898
3.98998
11.3183
8.6135
6.33434
7.68901
6.98809
12.9209
6.18364
3.01189
24.6594
6.69428
6.39932
17.1942
3.10351
4.06873
7.8207
4.76365
8.86892
7.16796
2.33637
6.21509
16.0441
2.72706
16.0577
7.58194
5.72596
5.8943
10.3263
13.2927
4.01005
4.73262
3.17551
1.6571
1.89048
3.77546
14.1156
4.68696
2.75608
7.37415
5.01924
3.23551
8.12264
2.10119
2.69913
3.2858
23.0144
11.7761
12.0224
3.46316
3.676
14.5407
5.62959
10.7087
4.88474
6.02871
4.04595
14.7811
11.3318
16.5692
6.54252
3.22775
3.79118
6.3178
13.2211
8.60143
7.65588
9.47158
6.44156
17.1206
14.9479
5.1427
5.37109
5.45856
5.02339
18.1424
10.1008
2.55688
6.17302
3.46057
5.00896
2.89322
3.23391
9.05666
35.3106
9.75863
6.18969
7.8304
6.86794
2.33791
4.9282
3.90548
5.49472
20.0385
2.36412
4.40989
4.77511
5.69736
1.80719
32.4283
4.58259
3.13248
29.5942
3.98628
32.3182
4.3247
3.33239
5.65343
9.66187
5.74926
5.7541
7.4702
4.33581
3.89872
4.75071
2.64483
12.5469
1.83945
8.48573
3.37907
3.96892
6.0899
47.3658
23.6093
4.75739
15.5629
2.07644
15.3062
7.80276
2.78576
1.32962
4.55406
3.69697
39.5219
3.56923
3.33715
3.76862
14.7692
20.3529
6.54563
11.5459
4.57705
18.8446
2.67355
15.8805
6.49604
4.27271
38.0266
2.81797
14.6042
3.55054
2.04009
17.8033
5.12494
23.8043
6.92466
1.49296
5.65761
11.3585
3.21183
4.51326
3.08941
4.29167
1.65557
11.9991
3.55838
1.70947
3.00436
6.43597
2.92343
6.08807
3.3284
2.16341
10.0102
8.78479
8.01014
5.25215
2.47917
6.33488
2.50273
3.9552
23.717
11.7521
11.236
2.31559
1.78142
4.55277
20.7364
6.06745
6.06578
4.62143
2.10508
9.53005
3.34851
6.24276
7.29163
6.97695
5.82463
6.44801
6.84544
37.2299
2.70748
2.84821
20.8096
2.36436
5.99285
4.01323
3.55108
29.6647
6.45049
7.37406
16.7529
6.30756
5.67452
5.51806
13.9731
3.88067
11.9934
3.22663
1.86707
8.94623
5.45741
8.94273
8.61505
6.93081
3.71366
15.8979
3.68527
20.056
19.2657
21.9552
6.0897
8.03346
8.03321
3.41772
7.39342
7.3292
2.92885
2.09954
2.51049
7.25411
18.2115
3.20629
22.1506
7.3993
8.17851
1.74471
2.1919
4.66743
8.22209
22.2014
11.3884
4.28206
17.7836
21.3305
1.83961
5.64144
6.53234
4.13728
3.38081
4.68102
9.10483
5.90783
3.5898
25.0313
11.556
15.6074
10.6606
3.3586
5.64412
5.22854
4.74691
4.21374
2.23368
9.93319
7.18046
5.59182
11.9204
3.26084
7.8771
4.40788
5.25873
7.89288
3.87051
2.93552
3.54529
4.3272
7.21303
5.64415
5.60432
4.36498
3.20627
7.18593
5.59198
5.92496
1.51233
3.9495
7.25785
1.38468
5.26758
6.04742
3.85655
3.87112
25.5359
6.44552
16.4552
5.07831
5.12425
10.275
5.89742
2.08682
5.06538
5.44149
7.53839
5.11711
6.68153
3.10861
3.35408
2.94506
5.08954
4.88025
1.95211
6.12578
9.80386
1.92985
5.23769
7.14907
6.39718
5.58002
4.59883
3.88439
2.93155
4.64431
7.0912
6.62253
5.73671
6.31284
4.37829
4.3218
2.27398
2.36443
5.998
5.8129
7.17412
1.75783
20.3349
17.4914
2.46379
3.19236
9.89893
7.11323
22.5053
1.73922
9.29449
3.08933
7.1639
6.49793
2.22064
4.59242
8.10771
13.1931
6.55661
2.10597
7.40102
11.6132
30.355
4.88017
4.35211
26.3086
4.26236
3.04651
2.21131
4.1816
10.3915
6.44324
5.57078
6.45336
5.05823
7.75266
6.04086
7.29744
6.95811
6.39328
5.45697
6.05466
2.65766
3.98843
11.2749
3.25785
3.11026
10.0686
6.47356
6.24233
4.11746
5.97392
5.34767
2.97565
2.94907
5.12884
15.8498
5.75866
7.45344
9.61148
17.4165
9.34022
3.73247
3.80855
4.42629
16.5167
26.094
1.41876
4.73355
6.40311
2.41154
7.33768
7.57611
3.79795
4.03083
63.155
3.42123
17.8295
3.42949
7.6184
1.76336
1.96786
11.8122
4.50165
3.37206
7.01016
3.60666
5.94133
33.7656
4.03458
2.79534
10.0402
12.6732
1.3238
6.01368
7.49542
3.28941
6.12385
17.222
2.80627
4.50373
3.58067
18.8634
5.51372
5.03523
2.99792
14.4117
4.37035
6.34266
6.92894
5.88724
7.24856
7.16493
5.67851
2.03699
11.7486
4.89473
7.21756
2.8968
10.8769
3.6661
3.16019
7.05955
2.66055
2.00058
7.68484
7.63933
5.5412
1.73072
3.10872
7.45477
7.33841
18.4987
4.36439
6.98288
33.6655
3.86447
4.09219
2.17988
3.7147
6.94012
26.9869
7.73547
3.95497
5.99906
8.0882
2.88374
24.623
5.60257
5.73006
5.24099
15.0034
3.08074
17.9429
2.89491
2.52472
3.51269
4.06202
9.11629
3.57578
3.73299
5.30582
19.4931
22.2322
6.06845
8.20215
5.53634
18.8931
4.63178
16.016
7.44056
1.81941
2.10056
13.9507
16.3842
4.62135
8.47157
7.4375
2.17508
3.86264
6.69951
1.74359
17.9172
17.8255
7.04626
5.95969
5.20667
13.4774
15.7951
33.1859
6.88978
19.6398
19.4992
5.74166
3.97451
6.80307
5.47451
24.3433
2.10697
3.73381
4.05795
7.91026
2.32714
3.29197
16.3094
4.87257
31.9855
24.3952
23.6611
20.0569
23.7669
17.2432
27.3499
6.30962
5.01155
5.7949
3.70767
19.2049
4.13981
6.50076
16.5096
2.96061
4.57329
4.02791
3.75538
5.50868
3.44648
6.91286
1.33873
7.06944
7.29667
4.11735
3.271
6.63017
17.1061
3.75592
3.26897
3.1438
2.26691
3.80314
17.2877
4.93156
3.77055
3.19364
7.52127
5.37834
3.37475
3.4695
29.9276
3.01273
5.8176
15.0506
2.46746
2.79686
3.18669
2.95165
13.8931
32.1097
5.57507
3.1278
6.03313
2.79135
3.54173
3.39028
4.16005
23.0841
2.46108
2.08875
3.47631
1.69904
1.49979
11.4325
8.8048
4.23624
16.7612
3.41013
6.54411
15.8736
26.7072
6.11646
4.00328
16.4706
15.9553
6.20371
1.37967
12.2614
16.2603
7.56895
5.22087
33.2186
2.4741
7.1798
6.41763
11.1109
4.69183
5.95752
13.7349
2.99396
8.72633
7.67895
18.4663
4.77291
34.067
2.35142
2.04935
5.74637
5.30813
7.82755
1.32193
4.75934
4.01761
4.69178
1.73389
10.8101
5.22807
6.71324
7.42582
3.39851
1.72524
5.0072
4.35391
6.13097
2.75462
6.34018
2.56391
6.87458
5.85069
3.63035
3.12982
27.6526
8.21548
2.73605
7.29056
3.37511
26.9842
2.68609
24.0788
2.26689
2.23497
6.57016
2.02404
6.69672
27.0888
3.724
3.03035
3.96771
2.39113
2.09657
6.05636
12.6723
32.0351
12.8442
5.41865
4.93886
1.9766
1.71589
3.2321
4.32616
4.93143
3.13089
11.2008
9.29667
15.6823
15.5005
17.9503
5.69425
34.4079
4.12769
5.4904
3.042
5.26605
1.89295
2.21265
4.0266
3.17482
4.6542
19.8876
3.21106
4.77788
2.05814
5.40168
17.1795
27.6518
3.83269
2.43658
8.83098
2.92082
6.2041
2.78991
4.59219
20.4279
4.23008
1.92755
3.408
2.59098
12.7997
4.17672
3.05809
13.5739
3.33491
12.1187
2.8172
4.97717
5.74948
2.23461
3.71953
2.12508
11.6141
32.7228
16.047
15.6659
7.10055
10.9398
5.99039
5.69511
4.39616
2.92063
2.95696
4.58798
4.95845
2.67035
2.02854
5.26775
5.50278
3.30452
5.16768
7.79879
14.1176
3.02663
2.6067
2.6233
2.98834
5.04686
4.9133
13.8268
9.85845
2.69209
4.92863
6.71229
10.2992
25.1974
5.44913
14.0732
3.43801
5.41371
5.08541
8.47253
5.34856
4.78717
16.4805
3.54388
4.25359
3.27552
4.76233
4.58436
2.85936
2.65511
4.01927
16.4286
17.1231
12.9089
3.62421
12.0757
5.22012
4.60496
6.46489
8.43203
7.60302
27.2864
26.804
25.141
27.2867
23.7518
20.8428
22.0608
22.5851
3.15871
3.4544
7.02308
3.37893
3.36903
6.47435
4.49524
4.13217
4.42363
6.10344
2.82324
14.0975
7.25636
3.58148
9.06635
6.20205
4.68706
4.41911
5.12773
2.8328
7.79904
4.99134
31.2438
4.78795
3.75225
20.0135
2.82373
3.63772
7.77181
1.46297
17.3289
37.2169
7.05688
3.89911
11.1319
21.1181
2.26385
21.2335
3.44799
16.7555
9.65149
5.49524
4.05282
9.65011
3.07356
6.61251
11.2014
6.41061
2.15358
4.2465
36.3594
2.19206
14.3667
3.40976
1.38912
34.5697
5.31646
7.55835
6.0321
7.14676
1.95579
2.84326
5.10015
2.15749
5.29359
3.90725
11.6883
1.85388
2.58669
5.64518
6.92307
5.59277
3.35276
6.11645
9.01323
7.69082
6.02326
7.70924
9.16727
10.6454
5.96524
3.52745
5.99681
3.69819
4.11505
4.71817
3.09437
4.78898
3.27941
21.0543
3.76976
25.7014
5.57173
18.9302
5.82811
4.89887
30.1638
2.34535
6.05276
5.62658
4.86298
6.09554
5.04835
5.86886
7.19776
3.00161
5.76922
21.1041
6.80946
3.4654
14.1558
2.90055
11.8961
3.6402
20.2195
2.87883
4.42702
27.4148
2.60906
5.37004
14.8692
5.25461
7.70567
2.57969
2.99766
31.2382
1.9927
4.66531
9.96049
2.29501
7.83172
4.88163
6.17306
7.0962
4.45916
4.64796
1.53744
16.8724
4.70768
38.4973
13.0532
10.4472
8.72101
2.74697
2.90312
20.534
2.02827
3.23131
7.64438
7.20215
6.65255
6.08961
14.3211
4.29171
3.77361
3.70576
4.33936
8.70659
2.02269
3.65264
6.8891
6.25345
9.92768
5.60627
2.96882
1.41994
12.8456
3.29595
3.55801
10.3703
6.63295
5.59606
3.80196
9.14341
2.00906
7.47468
5.92755
3.31642
3.51383
3.13127
4.3376
3.08166
4.7923
2.48955
3.42313
14.6427
2.8215
31.4228
5.66062
2.97313
7.48623
4.75534
16.087
8.20165
3.10716
2.84138
3.9118
1.97821
13.3693
7.42722
2.15332
2.43019
11.5545
4.52004
16.4006
2.31577
3.78507
5.6972
3.19603
1.5854
11.6845
4.00636
20.0481
7.73318
3.67152
6.41582
1.41925
13.8181
2.18669
6.04152
4.4291
6.38343
5.93725
3.88715
6.31845
17.7539
1.48014
5.7317
1.7571
3.7102
31.3685
4.22395
36.7693
3.79977
4.27558
3.85558
35.7294
3.38371
5.02992
1.90377
6.67928
7.9552
28.706
2.246
2.30995
1.89681
1.78699
2.43238
4.06558
5.78058
5.28601
3.25276
2.74358
2.93247
20.4501
6.58525
2.60653
11.8459
5.63742
4.4355
3.33252
2.57199
5.87509
6.11084
4.92757
7.75966
3.09304
4.48492
2.42839
3.04188
49.2848
3.59529
2.86595
7.5641
3.63731
5.41393
5.72086
2.65477
3.15666
21.783
3.4756
3.77731
3.63067
2.51388
5.06767
3.2257
5.61034
7.42588
6.90513
3.79152
6.32202
5.25456
3.26768
5.58933
5.96254
5.93269
7.78486
2.46173
2.75848
3.50422
3.02465
2.69224
2.0045
14.8139
10.7319
8.51135
5.41291
2.97869
6.66602
4.20087
3.51429
3.2797
4.0897
4.30352
20.3567
5.52709
5.19318
6.23729
6.54872
5.46016
14.7345
2.94263
3.21022
3.07231
1.81496
6.27375
4.45439
4.83832
3.67365
4.51378
3.68933
1.60229
11.2274
2.92644
3.70165
3.57248
3.30487
2.6469
3.69685
5.60829
4.04627
5.28413
5.36414
7.03032
7.40264
6.83071
4.69738
16.5609
5.20745
15.9937
5.06332
5.37535
7.90114
5.50263
2.23309
2.94255
2.75803
7.81665
22.4955
12.9724
2.91132
2.7872
2.69363
5.11286
3.2724
5.23291
15.6376
2.40249
16.1048
2.03178
3.11065
1.96236
4.98388
2.92211
5.79291
2.1028
2.54215
5.11527
3.36155
4.23744
3.97354
3.36697
4.65481
14.5487
4.9929
2.81254
3.68919
27.6999
3.18732
4.15045
6.50493
3.33733
2.86367
1.82597
2.01997
3.29399
4.95587
5.54136
1.99206
10.4849
2.28903
3.76753
21.7766
2.00484
1.40335
2.00165
7.58832
6.08246
31.3329
10.3644
5.61263
6.53318
3.75203
6.34754
3.84315
36.3722
3.61178
3.79545
2.68928
2.60635
2.52702
39.1053
7.72142
3.52758
5.79617
4.48576
5.46397
5.05766
2.99215
4.09418
3.06775
4.84112
20.6188
2.01829
1.87366
5.94908
2.69231
14.0179
15.5136
2.47807
1.64213
6.84827
9.75344
6.79573
1.54951
3.28844
3.00149
18.7537
19.3123
2.95185
3.42166
23.5892
3.01579
6.11801
6.58703
10.181
9.11918
6.18207
6.04294
4.31042
6.0635
3.74817
3.78445
10.1396
4.6304
2.05918
2.54744
1.88197
3.93147
3.97871
6.33453
3.12593
12.9554
3.80053
6.32592
6.17572
2.95132
2.72462
3.22028
3.74075
3.25963
10.9039
5.09428
10.3568
11.1372
3.11085
3.55494
4.38837
4.66084
25.7099
8.22888
4.79293
2.90134
13.9263
1.78064
3.81156
12.5593
3.36267
13.5707
3.25708
6.01969
5.85345
3.56435
1.54074
3.80834
10.6613
2.72175
3.83868
1.79557
8.26766
3.24612
1.72393
10.6663
8.90107
3.92996
4.31516
1.57717
5.0432
32.2748
4.75412
3.1123
11.8652
7.69565
1.85011
2.59217
6.8195
3.49605
26.3404
2.46464
4.63934
2.36351
2.53955
17.4554
5.68257
3.62726
3.68137
37.7726
2.56755
2.97894
2.50605
2.57824
2.47845
3.50521
3.6743
16.8705
7.60981
22.8971
3.82652
5.06578
2.76172
2.76941
2.59075
1.51173
3.14788
2.56667
2.91142
7.72065
1.69127
14.5943
3.55733
4.06201
2.18904
3.12744
3.6283
2.70974
3.31066
12.8141
3.05988
2.24661
3.10482
5.14252
3.6314
6.00171
11.788
8.53995
7.10458
13.1025
5.74317
3.23848
2.59694
2.87467
5.28468
9.84504
3.02478
5.19581
7.96069
6.31501
3.41911
2.8759
2.97803
4.65819
4.08864
7.19457
4.171
54.1881
17.3394
15.6835
5.70413
2.67255
2.45703
3.26539
1.7267
3.73514
3.60366
17.146
18.2223
3.01347
21.7468
1.99293
6.66856
2.62181
2.75931
7.65125
6.68907
4.18807
6.65257
3.05619
2.19256
39.7444
2.07525
6.78413
5.57787
5.68625
5.49063
2.43824
3.45688
1.32638
5.85934
2.21483
19.2726
3.72238
4.9856
35.2754
3.85865
20.1675
2.50997
13.1315
2.08384
2.22217
2.92144
2.6969
4.61419
3.15371
2.87552
7.25251
9.59763
1.82513
2.07482
3.47737
25.9484
1.77844
3.40269
17.5598
7.72404
2.43479
6.62236
3.13496
5.33931
3.54552
2.19631
15.9665
5.07902
3.60398
5.1315
4.08171
3.26934
5.37301
23.5759
11.8268
3.03824
7.2184
9.27044
4.20698
4.35443
22.4424
10.0468
5.13796
3.07565
5.03051
2.79788
7.16931
23.7862
3.77627
7.77213
3.09112
3.54802
5.57569
3.70544
27.1823
3.47942
1.90588
2.31505
35.5436
2.96544
3.11493
11.4594
3.58923
3.51334
17.8242
5.24942
9.10079
6.34747
2.6637
2.74541
10.9688
42.0079
6.18534
4.11177
4.26144
25.2133
5.68215
5.46553
1.45655
5.43028
10.1417
2.16451
6.6916
2.89666
3.2597
2.27276
8.31662
1.62869
2.04125
3.25004
6.22892
2.59572
6.89671
2.78834
15.5585
3.49351
1.67634
4.4278
7.07783
14.7709
4.85581
1.79547
21.5113
10.7198
4.28123
2.61285
3.86701
2.84831
7.0161
3.58651
24.8943
3.09512
3.72743
4.28134
17.3764
6.59375
11.141
33.6875
2.15681
7.04541
5.14447
2.13526
15.6823
3.25311
3.09768
2.2582
16.9002
2.21824
4.67699
3.9122
3.19997
3.42711
1.35688
4.46771
2.91014
3.46131
3.63977
10.8265
5.58163
9.83255
5.54344
1.92471
2.32696
9.3603
4.58907
7.1062
1.84533
7.14613
2.70123
3.79463
3.24639
6.05059
2.87077
17.9939
2.9226
3.21573
4.03347
5.12351
8.63242
16.5067
2.78981
38.6565
3.16791
1.99521
4.56935
4.81728
2.3973
7.99178
2.23698
4.85439
9.66395
3.47266
7.8546
19.2089
5.84929
6.31525
4.27644
3.50137
1.95776
2.48666
6.09717
29.2282
4.25752
4.64553
14.1995
6.39938
3.50286
2.41823
5.47868
2.24587
5.48777
2.72873
23.417
4.30428
11.4049
3.906
10.0003
4.85022
53.441
15.0326
5.46372
5.25422
2.71097
14.3881
4.45057
2.3379
2.69525
5.51127
3.31888
5.81666
3.39232
4.71384
1.41212
2.23404
16.5674
4.57713
13.4344
3.81366
4.33052
4.8677
5.94837
4.79636
4.15417
1.69047
3.99634
4.13591
19.222
2.49724
35.8417
22.3111
3.50558
4.68211
6.05727
2.878
3.09782
7.49225
10.7627
4.03079
8.23079
3.83365
22.7513
2.83242
5.15732
6.26442
9.69651
9.87621
9.4568
8.22689
24.0803
20.2754
17.0711
20.5381
5.91752
2.91835
3.34685
6.22774
2.46398
2.80385
1.7563
2.95557
2.8854
4.04632
2.65124
3.20146
2.13664
21.6442
5.26777
32.6668
8.33256
2.30631
2.60055
2.96678
21.1268
4.78627
1.49947
4.91882
2.7895
6.52837
2.05974
4.01655
23.9232
6.26782
7.8986
4.4814
3.4346
19.213
32.587
3.5567
3.00003
6.57568
19.9416
2.28915
5.42312
3.44846
4.06701
10.741
25.9857
33.3654
39.7751
5.67989
3.69826
12.5698
5.21186
14.3414
4.058
2.14555
5.48013
1.69299
15.3293
29.6486
4.11831
1.98387
11.367
6.83772
5.96746
2.06828
26.7969
40.8914
2.41977
8.73397
18.3573
3.11899
30.4217
1.66846
9.4367
17.7877
18.0232
18.3295
18.1073
1.69139
1.56906
3.24438
3.31551
5.45924
12.5579
14.5643
7.18574
7.37991
18.9705
5.1686
2.99062
13.2841
16.2741
4.47622
5.03498
5.76811
4.50285
2.45387
4.31083
6.17203
4.2397
4.35339
5.99197
6.43957
6.0139
5.34738
6.09024
4.83003
6.73858
7.21838
2.08224
5.54528
2.4476
7.87992
4.88304
28.2739
2.31212
20.757
1.80682
5.85158
10.5436
6.83397
3.12916
1.72318
11.1055
1.68374
1.61959
3.4959
3.2436
2.82593
3.21185
2.71766
5.39382
5.73689
9.66896
15.5848
14.6732
4.17076
3.53395
28.0264
4.20399
3.91978
7.23711
10.5814
3.02627
2.00377
4.80907
3.52394
4.01196
3.57995
1.87675
2.46371
1.54037
4.48919
4.31051
4.93385
4.25395
2.41706
4.67777
3.04536
1.91764
7.84672
9.51797
2.73011
3.14341
4.33314
3.05973
7.59012
10.761
26.5449
23.4553
8.90782
1.89221
2.81371
2.90046
6.45027
2.35496
7.46026
2.99674
8.28118
3.85656
1.63677
1.79137
6.12297
18.9873
9.30781
5.97162
6.82488
1.67954
1.34079
1.41779
1.97087
3.77614
7.45062
10.8353
5.62819
2.76476
5.98532
5.74477
7.58161
5.19932
5.70559
2.73452
4.15618
2.67673
14.8028
1.92169
3.63756
4.90942
4.94635
25.0908
3.33995
5.91741
1.77565
25.9603
25.5518
1.71049
2.79381
1.61786
3.6707
3.53482
3.69378
4.08748
7.48235
6.95636
1.505
3.85339
3.52378
2.75412
2.95594
5.25969
20.3893
2.7428
2.77018
3.25227
3.20436
4.22523
4.40319
5.87523
6.53788
3.09602
2.69832
5.08603
6.05509
1.36386
6.48408
3.2154
1.59309
2.98462
2.08458
23.2649
5.32442
5.49271
7.84482
2.07341
2.65144
2.83313
13.1864
4.85239
17.365
3.66205
3.95217
2.37956
3.90574
1.69774
5.25792
3.70726
14.6755
3.68385
3.52877
2.33501
3.0331
4.11661
3.41294
2.42719
22.9071
31.4409
7.75294
31.9721
8.90398
4.11634
1.38139
4.03061
4.46599
5.20939
3.08736
1.76434
4.72088
5.93758
2.35066
2.79526
2.96668
2.39493
3.3286
1.74154
7.00304
3.09363
5.91133
2.05638
5.13757
3.48649
2.78269
2.44118
3.514
3.04564
34.4067
2.02194
3.51309
2.25475
20.4088
2.15983
4.13127
3.35251
7.97213
3.35431
3.29524
3.14078
2.40606
3.89345
3.75246
3.1234
2.50524
3.61801
3.54029
7.46235
12.9756
1.72171
36.3844
13.0325
2.81153
10.812
22.8927
1.29921
9.47929
6.89717
2.4665
24.2578
2.60774
2.85298
2.59735
2.1024
4.51947
10.2352
11.1986
9.19285
9.14921
14.8904
1.42935
3.61686
3.22971
3.41413
5.88758
3.34724
6.65618
1.75759
36.9649
37.5824
23.9349
2.6907
2.60574
5.92237
7.52831
10.7528
6.58453
9.37522
2.63603
20.4688
1.73443
3.77043
1.74743
6.09818
4.54006
21.2774
3.169
4.5969
4.77904
4.97803
10.361
3.50457
2.38405
12.4167
3.43337
4.53464
4.32686
2.19805
1.58604
1.71308
13.1095
5.9657
7.81214
2.19266
11.4654
3.29404
1.75062
3.69756
13.3668
7.24174
1.83146
3.59598
18.1957
13.6936
10.765
4.83312
12.6425
3.37267
3.81254
4.81118
2.13699
27.4075
2.67011
13.654
4.77187
1.61961
9.00762
4.45281
9.41703
2.43409
1.87882
14.2867
4.8477
4.57776
4.22011
6.99664
1.47913
3.72197
3.22319
24.4012
55.1844
2.29629
6.53433
3.55678
14.3149
2.41816
5.45297
5.26424
13.8313
8.45049
3.03858
5.39076
2.25053
3.49249
1.75353
7.98144
7.48804
6.87454
6.89061
2.50685
2.41806
3.27506
3.39839
4.68634
20.122
6.8916
6.05874
4.15872
6.35911
3.38423
4.63183
18.3006
7.16902
18.5554
3.5496
3.98679
2.13056
3.55429
22.4456
4.08642
4.3338
2.78928
1.72674
4.70097
15.0845
3.42411
3.30883
6.40364
7.11435
15.6935
7.07106
8.03266
22.4865
14.8214
14.5676
7.44691
6.19071
5.74348
24.9081
2.87239
3.48015
3.97202
33.2747
2.06685
6.08768
2.22495
17.7261
6.36484
3.78048
1.80082
4.13457
3.81308
2.84213
4.23108
2.63598
2.25984
33.72
6.28766
29.4051
21.4642
2.20592
2.90241
12.7572
13.064
13.2245
12.9298
25.6674
17.4713
3.06324
2.15174
5.82686
3.1734
3.54085
26.7261
2.26121
11.2381
7.33705
6.76647
7.12236
3.54597
3.37723
3.38461
2.30428
5.55072
37.1391
3.0773
4.4833
3.06988
18.6892
8.648
19.6689
12.7196
7.75116
2.49623
7.13831
3.26154
19.8212
3.82581
2.38957
2.1342
7.91038
3.85275
3.64309
3.80421
5.87005
13.3405
3.93413
3.42193
12.509
12.5912
12.5099
13.6177
7.04334
4.12824
7.4508
24.3931
24.2713
23.8739
21.7429
15.0383
9.65726
8.39115
3.52541
6.34879
12.9881
20.1369
1.65723
10.4445
7.95186
7.3578
9.271
2.48093
3.60535
16.3289
1.71026
5.69806
6.0011
3.32911
7.24624
7.27232
18.8149
3.238
3.12774
2.60967
5.05737
2.11123
1.99594
4.31225
7.81961
4.6555
3.18632
1.75051
4.26104
4.53655
7.92303
4.43535
1.94066
34.0654
3.07574
2.49835
2.51055
13.4432
1.74118
4.25259
3.38396
3.77604
5.60018
5.1077
3.88515
2.46921
4.44186
3.93881
2.97435
4.53691
3.52586
6.72384
6.73643
1.48758
2.49446
2.60265
2.20026
2.75937
6.35564
2.13192
6.65322
3.2783
3.41302
5.19946
3.8455
3.24421
7.22826
2.78208
8.69085
6.06821
3.16079
2.16566
2.0784
2.03536
1.7393
3.78307
15.6661
31.6236
16.3315
11.6854
7.71159
3.8056
3.68881
18.5509
7.27573
17.9107
7.87541
4.36054
25.6287
3.55352
27.1856
18.7226
2.47193
3.34567
5.63489
1.6565
3.57118
5.39555
3.69609
7.85861
3.88183
7.97479
3.41856
8.07266
2.30639
3.64711
7.26582
3.10986
3.47522
8.04349
5.13949
5.0214
3.99319
5.13439
6.05929
3.33868
4.12174
8.86779
13.9452
4.36861
3.69129
4.27065
10.5832
23.6575
21.4751
23.1329
4.95358
1.68464
7.51406
3.44547
3.47393
15.3598
2.18123
7.36652
1.83834
23.5909
3.32435
1.69248
3.15038
5.5025
6.44003
7.10895
5.99334
5.71631
7.13512
8.79396
7.94772
5.575
5.29101
1.93326
2.37449
2.34824
15.1556
9.28598
4.74542
37.6765
2.78448
14.0873
6.29724
2.78768
7.26641
1.34747
8.92244
9.45259
9.81432
8.33732
9.22252
7.39101
5.72706
5.60155
5.95179
2.52617
8.80512
3.56045
4.29217
14.4825
3.24012
1.73031
7.63588
5.12173
3.60634
2.58409
6.83563
2.80751
18.9715
5.37122
9.57265
3.64661
2.23616
3.05566
13.6097
2.47219
2.81229
2.16089
2.48585
5.7419
3.64481
5.8661
19.9222
12.4219
17.5994
3.9254
2.71347
9.25644
9.25728
9.95833
4.9022
23.7252
5.48065
4.65823
5.77911
6.46371
5.69159
29.3869
2.70186
6.30962
8.55107
8.83348
4.24112
5.1049
2.77998
1.61206
2.59107
5.46206
4.53427
2.39005
2.89965
2.75393
2.75203
7.64144
8.40675
7.43427
9.46981
9.99929
8.20301
3.69781
5.14238
1.94118
2.58201
7.39893
2.80773
8.39867
10.5523
5.68693
18.959
6.70289
10.0807
5.3525
5.48471
4.2654
3.98309
5.30082
5.77575
7.87993
6.48164
5.9869
5.11651
5.21518
1.66582
6.68976
3.58277
2.18711
3.81084
1.44898
2.93487
15.9573
3.0523
7.21317
2.37391
15.2075
6.856
9.58803
5.62335
8.18282
5.47638
5.31095
2.6272
1.85481
1.66352
6.16688
2.95519
6.79581
3.92114
3.90096
4.1064
7.25676
2.84672
11.4121
4.47543
2.83342
4.34862
3.68177
8.14519
3.74782
7.24392
2.51336
2.195
3.32195
1.78643
3.61186
6.17019
6.43351
1.93605
4.49905
5.08197
24.5348
6.99409
12.5952
6.69923
3.39862
9.47991
5.27506
8.87177
2.67428
2.88417
21.11
4.76709
5.32739
6.3442
5.37067
4.63226
8.09538
8.29373
5.95017
2.64593
3.15936
2.52924
13.0388
2.9534
3.10979
3.43925
5.75783
8.55693
7.20293
10.2574
3.69261
6.61392
5.38567
18.8618
2.35145
2.39848
4.22869
2.51094
3.78063
6.69133
2.07815
5.31127
5.09053
3.68077
5.0452
4.40594
11.8262
4.46655
3.73583
8.59374
2.60654
5.89879
3.23614
6.87131
1.83146
2.99228
5.25469
9.35032
15.8936
3.6815
1.61867
2.58714
28.0512
3.05604
14.8187
8.47541
12.6734
3.67898
4.17032
4.66631
16.2553
4.30453
3.88841
9.86778
17.2846
18.9161
3.6649
1.5445
1.72934
5.78337
2.72229
5.38243
8.45732
3.6604
7.70846
3.25592
14.0694
3.84787
4.15219
2.14071
5.01086
30.2594
6.19055
16.3678
2.87783
3.93307
3.23343
6.61341
5.1608
2.28996
5.13425
6.66888
4.73757
5.31311
4.46924
13.5273
3.27737
6.03351
4.45942
4.45262
12.1549
20.0656
15.2913
14.7078
2.57967
4.49291
5.70258
3.99101
5.86013
3.9452
3.78811
11.4479
2.17449
3.40604
2.91074
3.39236
3.82082
12.3688
11.6329
3.64667
4.07862
7.57353
7.94396
6.65756
5.31575
2.23449
20.2807
2.52913
6.98936
13.8273
17.0642
1.62327
3.13671
10.1096
7.71212
10.4664
10.6238
11.6747
17.743
16.7778
3.54181
7.56845
3.39467
2.9931
5.25486
25.4546
3.10766
4.52006
4.47165
5.66916
5.36226
7.21348
4.6925
6.03896
6.02556
7.1199
3.18402
1.84583
5.83645
7.47104
9.26103
3.42903
2.46955
7.76764
2.75671
3.98883
3.6976
8.17418
8.13518
9.31226
1.85854
17.805
8.93873
5.10016
8.33629
2.68293
2.74577
2.69079
7.17162
4.04142
7.30458
8.6462
21.3302
1.63901
1.69856
5.8474
11.8035
6.52062
4.67228
4.04285
1.69915
18.9037
6.45846
4.44401
5.3125
5.68813
30.9345
28.9901
5.30947
6.25766
1.75253
2.94376
4.89752
15.5903
4.86052
14.8851
2.02882
26.2538
34.2799
11.8306
4.95682
6.86394
5.87452
7.87431
2.0514
14.4563
8.94613
7.18049
3.67035
9.21609
4.04454
1.51592
4.11068
1.82981
3.71021
3.31771
19.08
2.67943
8.98122
18.1838
12.2797
2.69966
13.515
2.34473
2.19997
12.1919
3.3617
3.89337
4.02946
1.80876
11.8135
1.89492
1.70076
4.53302
2.06624
15.611
7.3291
3.95212
2.92132
12.1207
11.4937
11.8027
12.8861
13.3774
13.8136
4.74934
15.5477
18.828
6.6895
6.28892
14.9659
4.02328
2.31816
4.37318
8.79517
3.65279
3.28054
2.96621
2.91482
1.68447
9.54921
19.2924
1.70256
4.93889
10.3521
5.02469
2.61855
3.10625
6.89148
4.02993
4.23818
3.86612
4.05312
2.29747
5.80445
5.8569
2.3941
1.51343
8.20387
1.49587
3.3486
5.93212
2.49808
8.70132
4.66615
7.79596
3.33679
4.678
7.21838
3.46985
2.07953
4.44721
2.29281
31.26
7.473
1.88968
2.16308
1.78691
2.04888
6.44272
15.8149
2.61291
6.51065
6.6749
5.04935
6.15709
4.46684
19.2155
2.00467
2.7905
11.7697
8.77866
4.36373
3.15021
7.95553
40.0056
9.10199
3.3978
4.0527
2.36395
11.4604
34.8305
1.98545
8.96063
2.83382
4.12907
3.69928
25.2891
1.64115
4.65935
3.23831
1.84287
3.29191
1.77713
6.37093
5.64483
6.51207
1.78551
7.60352
3.50329
6.4451
15.7329
5.00746
5.68124
5.71711
4.61231
16.9206
2.54811
10.1263
8.31435
12.5516
8.90606
3.42841
22.5421
1.75631
5.39766
8.171
3.29608
5.95582
6.70918
3.09396
2.79475
6.50677
2.3362
8.36261
7.35493
8.59205
5.00061
5.0543
3.76811
4.3179
6.05268
3.3572
2.50848
3.18241
3.3906
12.174
11.1033
1.3018
3.10349
6.29922
1.87375
40.0791
2.65407
41.9456
7.96786
1.76415
7.47932
9.64178
2.18734
6.8608
9.01413
3.26728
2.77738
4.71447
2.86334
6.63325
1.78621
12.5055
2.40718
30.3623
2.75059
16.1759
2.45764
20.8536
1.88146
1.8251
17.318
7.85858
3.8795
6.2581
8.01533
6.82854
2.22208
3.44176
2.68446
12.9296
33.9963
2.9019
11.0582
2.45425
6.72718
1.75559
2.67646
1.54554
9.45314
7.21678
9.93459
2.78306
3.35996
15.284
8.56563
9.11735
8.03217
3.35691
2.91407
8.18837
8.12972
2.01624
6.16393
3.45263
1.36486
4.31431
3.68365
18.0252
2.58034
4.43959
26.6676
12.2101
26.6321
4.02913
6.6876
15.6491
1.81644
8.90553
12.1631
8.66758
8.88214
3.46565
4.57269
4.1656
1.53808
17.901
3.61988
3.1988
7.10981
10.02
2.99327
8.85798
2.96393
2.01851
3.80037
3.315
25.3227
4.36539
9.68702
24.6201
3.39724
10.8301
7.18005
5.56318
17.9816
10.1572
3.40225
9.8996
10.4847
5.35175
4.66371
18.4963
3.33067
1.77463
4.27035
3.45007
2.5701
24.2409
12.2721
3.18029
2.28799
4.57382
17.3899
3.7961
5.06045
2.1537
2.37334
3.08293
8.56305
4.38222
4.77955
4.3355
3.92425
3.73009
2.91959
3.15538
10.5507
33.9728
12.2008
3.06927
7.24842
9.85405
2.46091
71.8243
17.2045
3.65613
2.29434
3.13318
10.1738
2.29888
2.87721
4.39084
3.70322
3.96157
9.4297
6.0746
7.03554
8.9139
3.56755
14.6739
22.7227
4.52307
2.51679
8.46593
3.74616
2.18091
5.63757
4.68163
2.33708
4.32782
3.89821
12.3238
4.49477
9.13128
8.63743
8.25998
31.2692
5.46551
7.91632
2.39098
6.27798
4.98215
3.61145
6.09439
3.71356
12.6259
1.37212
3.67159
6.9819
5.42349
2.14164
6.05712
8.50923
4.27256
29.0569
1.60722
5.35401
5.63956
9.11954
7.81048
23.2923
6.11808
20.7452
17.3254
4.81972
9.85278
16.6308
17.1658
8.04467
10.1831
6.58998
14.7736
7.31935
2.0218
3.43499
3.83074
5.18135
1.68379
36.5324
6.4815
21.7729
10.1826
2.9266
6.9316
5.13694
8.04921
3.5327
2.72282
10.3045
8.67656
10.7043
3.24404
3.60172
6.87505
1.32387
7.13316
33.0264
5.59955
11.608
1.8155
1.82296
16.3064
2.17308
8.7486
6.45021
2.03681
31.7037
9.12393
6.64622
11.6544
11.9615
6.62795
10.8727
3.9236
4.69172
8.69758
2.74699
9.09906
8.35891
4.58158
22.6976
3.14454
6.19927
4.36762
6.55659
4.89078
2.79341
3.7298
5.8217
2.84694
3.56339
4.03038
7.69804
4.16725
3.30202
2.32838
7.43282
1.38961
1.33279
6.26093
3.32903
12.8953
4.27418
9.38426
1.51517
9.9899
9.19161
3.80941
4.80628
4.04633
2.07187
3.61607
17.675
2.00322
5.0507
2.76635
4.85295
3.22012
2.55877
10.129
1.99668
3.6633
4.71562
7.61555
2.33471
2.67417
4.10248
2.07288
3.81402
2.36703
2.95815
3.01098
3.92446
13.3052
5.54145
4.71462
4.82089
6.36507
5.46948
15.1031
3.47999
1.78826
4.15636
9.55767
2.73429
3.07221
5.45441
15.4415
2.21042
3.81034
5.14356
4.24992
3.49578
4.28232
3.51364
23.2932
19.8762
1.76184
2.08894
3.99751
4.13084
4.46127
5.03455
3.83048
4.82547
10.8053
4.28224
2.39886
4.00837
27.3267
8.04051
27.3257
24.9658
3.55369
1.91641
5.95285
4.58583
4.16596
17.1815
2.46091
2.22552
2.78547
12.8119
1.65902
2.39444
5.37312
8.41682
3.91282
5.00011
6.24774
6.44577
5.8193
6.10757
7.36082
3.53088
5.13484
6.97812
9.3026
2.57989
3.09619
2.60539
4.80991
3.09468
1.81294
8.88995
1.658
18.0132
2.86414
3.22062
4.47017
15.1841
3.65958
6.76901
4.02329
34.7012
3.60432
3.80039
13.7287
4.59381
4.48204
20.0806
2.47257
2.04071
7.60729
6.13615
5.74036
5.00273
4.24502
13.2581
1.75208
15.1264
27.4694
6.25684
2.93955
4.89617
3.31152
2.18961
3.00588
2.6134
2.74931
11.7617
4.87363
5.82762
4.61917
2.78991
3.91248
2.52759
2.07506
5.67361
15.6677
11.4903
4.48138
18.1715
3.53618
17.342
9.67629
11.7821
2.30215
2.62982
19.5834
9.95385
1.29931
3.29723
7.31709
7.86252
4.86854
5.04707
2.70045
13.4245
2.81235
1.75018
13.9611
5.0476
4.57077
4.06877
3.23184
8.09023
3.2958
4.38951
5.76323
2.43739
3.11108
2.41058
3.89656
10.5639
1.61655
7.07606
10.5043
3.11878
2.74917
4.07764
4.45645
2.09892
7.3036
8.67442
6.53094
7.42345
2.35518
10.8259
9.07849
4.30858
3.99909
4.56132
6.20625
3.85302
4.59159
5.51485
2.20586
4.69185
5.59783
4.1898
4.42655
14.31
1.94268
5.54948
3.62555
14.058
6.38865
24.1494
12.4179
5.23685
4.29864
2.29235
1.81617
5.16698
2.53046
1.77665
24.494
3.48487
3.22159
6.74823
5.28317
2.03657
6.62909
2.6389
2.45215
34.3095
7.26691
3.8965
3.86051
14.9273
9.64361
5.46702
1.46892
2.78335
11.954
3.9521
10.159
3.3541
3.28601
4.38739
1.89242
8.35634
27.0299
25.2936
27.5403
28.3058
32.7182
33.0443
30.4228
32.2182
3.45695
4.32006
2.13075
3.62164
20.939
9.78556
3.33649
3.08607
6.70332
9.7825
4.33229
3.46287
3.20524
19.6148
4.74818
1.55662
18.2181
2.67611
24.453
2.6559
4.2117
1.89274
9.47125
28.3048
2.39182
4.64067
10.574
12.5374
5.48745
14.5592
6.43198
3.83534
4.27264
2.06927
2.5146
14.924
3.14304
29.0937
8.67179
4.29757
3.83335
4.41643
9.15866
2.18753
3.49565
4.16685
1.89516
5.77753
26.7228
8.43871
8.24888
9.44164
2.76195
11.7708
5.14306
4.94641
3.60716
3.85139
10.181
7.63972
1.97057
6.62645
4.3768
6.7534
26.3043
5.36508
7.38283
4.46799
2.12053
4.88512
6.55889
5.10363
56.7499
18.3157
5.21008
5.13484
2.82557
2.33068
8.81449
13.7069
5.2705
4.21542
9.91198
4.18306
2.15804
1.86709
3.42019
2.94886
6.12407
6.06025
5.02246
3.34649
8.30669
3.90817
3.36315
3.88075
28.2471
12.6358
9.95178
9.27153
14.6694
1.47448
5.71616
12.1032
2.03329
3.16826
3.25985
8.21271
3.34254
5.18166
2.79549
3.63897
10.1446
1.84896
4.24088
3.17733