/*--------------------------------*- C++ -*----------------------------------*\
| =========                 |                                                 |
| \\      /  F ield         | OpenFOAM Extend Project: Open source CFD        |
|  \\    /   O peration     | Version:  1.6-ext                               |
|   \\  /    A nd           | Web:      www.extend-project.de                 |
|    \\/     M anipulation  |                                                 |
\*---------------------------------------------------------------------------*/
FoamFile
{
    version     2.0;
    format      ascii;
    class       volScalarField;
    location    "2000";
    object      p_rgh;
}
// * * * * * * * * * * * * * * * * * * * * * * * * * * * * * * * * * * * * * //

dimensions      [0 2 -2 0 0 0 0];

internalField   nonuniform List<scalar> 
26307
(
0.296048
0.165148
0.165444
0.0786886
0.143941
0.186673
0.133475
0.231056
0.13468
0.279017
0.262319
0.181231
0.178992
0.169542
0.0270162
0.0920904
0.163069
0.0905579
0.18676
0.187541
0.167842
0.289858
0.0941524
0.0736783
0.11497
0.204239
0.181474
0.0815552
0.184761
0.167223
0.0202288
0.219733
0.0898473
0.209958
0.195155
0.274605
0.261625
0.174687
0.148644
0.260432
0.127986
0.0924467
0.170683
0.0698044
0.144228
0.0577826
0.19815
0.234505
0.269826
0.13718
0.12775
0.172304
0.183501
0.18277
0.199498
0.168076
0.142897
0.137141
0.220795
0.194998
0.0895986
0.106186
0.0892836
0.0729304
0.187265
0.0873117
0.237342
0.144621
0.171457
0.269734
0.242764
0.162634
0.287169
0.0852725
0.0848507
0.254478
0.193985
0.139369
0.170087
0.106548
0.0385779
0.287145
0.0381807
0.251068
0.293083
0.235152
0.179861
0.171066
0.273707
0.0965059
0.292681
0.0741204
0.154391
0.13897
0.0839083
0.192444
0.138472
0.110694
0.188414
0.198655
0.079441
0.138375
0.285701
0.296534
0.185018
0.21356
0.171545
0.198284
0.296573
0.166373
0.269552
0.0647389
0.196341
0.265162
0.0853163
0.0629973
0.0661264
0.133878
0.218892
0.295324
0.279044
0.145304
0.135284
0.129316
0.143899
0.157312
0.225797
0.103104
0.0826675
0.144003
0.135778
0.117443
0.253193
0.134186
0.183291
0.18884
0.21134
0.284846
0.195335
0.175518
0.294726
0.198921
0.10429
0.0824649
0.278151
0.225346
0.196686
0.191886
0.120624
0.195796
0.269465
0.0491619
0.198148
0.26509
0.263779
0.191543
0.161588
0.0178795
0.165858
0.0597025
0.113311
0.192614
0.151932
0.196419
0.29426
0.219193
0.203505
0.209776
0.137088
0.258067
0.276277
0.280735
0.275733
0.188733
0.0850391
0.170578
0.113104
0.288357
0.278333
0.262102
0.00860077
0.0579687
0.275199
0.139146
0.196527
0.163689
0.16428
0.0679349
0.16493
0.185318
0.197546
0.1268
0.0917464
0.286246
0.197839
0.274467
0.0791852
0.255971
0.142377
0.26309
0.00536323
0.290798
0.128288
0.15657
0.159809
0.0535885
0.139821
0.0951248
0.172498
0.0697638
0.156869
0.193836
0.307359
0.152562
0.185217
0.251414
0.198313
0.170436
0.270245
0.0980639
0.19261
0.157876
0.071034
0.171133
0.100784
0.279111
0.0753101
0.170517
0.269965
0.168606
0.167645
0.166594
0.0641956
0.161605
0.277729
0.180317
0.277944
0.149724
0.0883831
0.159298
0.0901606
0.000644665
0.115779
0.167401
0.19526
0.175772
0.190693
0.213348
0.193848
0.169364
0.222084
0.284879
0.123036
0.123946
0.142699
0.123705
0.130917
0.146706
0.0789769
0.170737
0.283645
-0.0233327
0.141917
0.138829
0.28003
0.133664
0.0926074
0.215486
0.279815
0.206266
0.214164
0.258135
0.225759
0.0777927
0.276446
0.0285132
0.189579
0.151641
0.117581
0.190502
0.201831
0.18388
0.183509
0.136874
0.043798
0.170862
0.103703
0.109069
0.179632
0.212627
0.134979
0.100125
0.288594
0.202764
0.202768
0.169797
0.193675
0.176584
0.204824
0.10181
0.171528
0.126674
0.200155
0.199006
0.123676
0.134738
0.172304
0.147614
0.230418
0.124545
0.26961
0.106449
0.254249
0.186792
0.158908
0.103178
0.115519
0.19591
0.273528
0.187579
0.180986
0.17035
0.135456
0.198311
0.150348
0.10754
0.0852252
0.216697
0.255949
0.190982
0.2762
0.0663579
0.266468
0.205457
0.189906
0.148811
0.294831
0.193015
0.277262
0.198109
0.0855122
0.0767189
0.289852
0.276597
0.134585
0.199577
0.199603
0.270749
0.176926
0.172523
0.205962
0.102282
0.0767286
0.130935
0.175225
0.203331
0.157838
0.0884281
0.0682703
0.192605
0.211411
0.307037
0.202482
0.0837835
0.184267
0.162158
0.252874
0.205641
0.165551
0.183665
0.180725
0.198496
0.190247
0.176117
0.168265
0.285256
0.278503
0.261237
0.190682
0.149873
0.26259
0.283451
0.142763
0.0682403
0.0858372
0.228724
0.228337
0.274545
0.18333
0.286415
0.205854
0.207024
0.165032
0.183627
0.233265
0.263993
0.058316
0.192463
0.169126
0.0575527
0.187145
0.0754466
0.127463
0.134362
0.270835
0.169067
0.177004
0.333762
0.206221
0.0806872
0.124984
0.175888
0.289277
0.206407
0.137408
0.178166
0.115939
0.0850169
0.0293536
0.18465
0.130198
0.153278
0.154762
0.096718
0.210732
0.266796
0.0279987
0.135282
0.290253
0.0794297
0.278357
0.264023
0.192518
0.237066
0.185231
0.260576
0.158568
0.207168
0.204963
0.208913
0.139224
0.186364
0.166658
0.205368
0.279975
0.044966
0.191972
0.291329
0.160217
0.278433
0.207315
0.132327
0.195344
0.171123
0.292378
0.193163
0.188426
0.170317
0.171093
0.109712
0.146904
0.0833272
0.144699
0.211287
0.193273
0.275893
0.151787
0.0808356
0.161785
0.150856
0.277117
0.178157
0.204274
0.200175
0.189772
0.210268
0.138868
0.19374
0.0598841
0.081981
0.19646
0.175942
0.150256
0.163553
0.193971
0.19275
0.207857
0.131679
0.212806
0.11612
0.190192
0.171308
0.175213
0.030597
0.165836
0.195127
0.199899
0.294578
0.0955452
0.103462
0.292019
0.189128
0.191275
0.0991063
0.256456
0.230681
0.288127
0.164209
0.190144
0.20602
0.120863
0.111996
0.138075
0.144995
0.185012
0.15908
0.132306
0.170028
0.188256
0.197991
0.00508158
0.183686
0.170762
0.0826846
0.162961
0.153004
0.0850156
0.200534
0.272613
0.155931
0.193993
0.202808
0.191702
0.164114
0.141549
0.208876
0.0982822
0.159855
0.189327
0.0826174
0.190369
0.209216
0.0349936
0.196979
0.189425
0.238122
0.0540263
0.193439
0.10239
0.18922
0.109766
0.255803
0.185607
0.170605
0.0806567
0.19143
0.19545
0.21007
0.194981
0.0823439
0.208468
0.191121
0.239821
0.120565
0.129942
0.236496
0.0449174
0.163866
0.16135
0.188191
0.10182
0.105924
0.151824
0.178807
0.10774
0.0749758
0.0788527
0.263963
0.203673
0.14484
0.189422
0.204847
0.147422
0.215998
0.175406
0.207285
0.183873
0.272441
0.114882
0.173347
0.138533
0.191807
0.172528
0.21711
0.165268
0.275247
0.262826
0.191361
0.088824
0.0815981
0.192708
0.278224
0.191364
0.129903
0.298237
0.0782825
0.129933
0.0218522
0.120089
0.126218
0.0919213
0.102456
0.212534
0.144714
0.258564
0.189582
0.207042
0.281207
0.159218
0.135203
0.214963
0.235035
0.137461
0.275187
0.188585
0.296356
0.236927
0.192062
0.118024
0.163267
0.204847
0.201238
0.106339
0.189555
0.185336
0.0484849
0.280487
0.175064
0.192711
0.143547
0.27683
0.163644
0.252727
0.135118
0.195576
0.20278
0.218794
0.277316
0.186484
0.138592
0.284048
0.187903
0.140273
0.139614
0.193907
0.190419
0.288101
0.101305
0.123045
0.203913
0.295428
0.112527
0.280584
0.133784
0.188854
0.20076
0.0618326
0.139467
0.077242
0.28602
0.103929
0.153553
0.0631941
0.0836909
0.188219
0.0838898
0.201158
0.197375
0.172588
0.0600723
0.169645
0.191363
0.137996
0.123454
0.172915
0.177691
0.202651
0.163867
0.20308
0.190963
0.129849
0.0931371
0.204271
0.138953
0.149994
0.157948
0.111614
0.256141
0.19208
0.105529
0.193184
0.087648
0.187492
0.134268
0.0889299
0.106247
0.177338
0.242147
0.197394
0.160729
0.189716
0.177223
0.200276
0.126078
0.173747
0.200142
0.198904
0.203922
0.191793
0.158132
0.250516
0.189215
0.209692
0.194083
0.199173
0.0870533
0.145225
0.193538
0.186026
0.116698
0.115941
0.182128
0.194134
0.20484
0.289893
0.130843
0.169881
0.14344
0.1775
0.140906
0.218807
0.097953
0.210587
0.127234
0.189244
0.192488
0.209788
0.191494
0.169916
0.143471
0.282384
0.026323
0.174063
0.186891
0.248393
0.192105
0.167972
0.190652
0.187173
0.0816767
0.191302
0.210827
0.0755892
0.171994
0.215821
0.133058
0.188417
0.151552
0.279038
0.228971
0.19015
0.187785
0.174785
0.177523
0.1553
0.191151
0.0926599
0.162344
0.18946
0.252893
0.0811665
0.136093
0.094642
0.157984
0.096914
0.1023
0.0603502
0.104591
0.219022
0.171713
0.138437
0.0940223
0.185852
0.147849
0.193632
0.141398
0.147269
0.187829
0.192374
0.136509
0.300907
0.247413
0.193861
0.257346
0.217582
0.0705028
0.187415
0.11221
0.145168
0.119056
0.0675595
0.113491
0.205477
0.247877
0.206077
0.206573
0.190402
0.282851
0.176116
0.131021
0.18494
0.169325
0.106216
0.165751
0.194581
0.299176
0.138397
0.115365
0.080766
0.187115
0.200892
0.185012
0.188889
0.174037
0.273349
0.158933
0.0999243
0.17359
0.186719
0.109432
0.109126
0.287895
0.2244
0.0901139
0.198164
0.268342
0.231661
0.136649
0.209195
0.187968
0.0830471
0.18811
0.193791
0.292905
0.183144
0.266635
0.282584
0.145189
0.128541
0.0910154
0.0838553
0.172124
0.270256
0.0810029
0.108909
0.25944
0.257451
0.0950117
0.202874
0.135727
0.113444
0.102735
0.130725
0.130055
0.138392
0.150596
0.123235
0.190192
0.285332
0.206381
0.101937
0.192182
0.122955
0.174507
0.278392
0.272287
0.19078
0.205942
0.0978649
0.131743
0.185011
0.0783248
0.183136
0.196989
0.165388
0.274427
0.279366
0.165298
0.260374
0.0443535
0.263065
0.189082
0.0939577
0.283973
0.197538
0.165362
0.138732
0.180355
0.0652622
0.208291
0.0911532
0.105774
0.145556
0.150358
0.19396
0.127223
0.0834566
0.136621
0.252597
0.186301
0.178742
0.287
0.143369
0.175448
0.219671
0.170268
0.278288
0.0987373
0.186459
0.0873693
0.163616
0.146586
0.228097
0.198457
0.203143
0.192881
0.106303
0.160411
0.134385
0.270739
0.175849
0.297165
0.172183
0.151452
0.0910417
0.0938122
0.172452
0.133879
0.184208
0.192695
0.185753
0.114977
0.200925
0.18275
0.200836
0.290538
0.152826
0.267494
0.18748
0.23087
0.19298
0.169286
0.265661
0.290998
0.261512
0.18064
0.282657
0.170897
0.307832
0.158317
0.0598889
0.152981
0.196957
0.12625
0.20208
0.148088
0.132575
0.126647
0.124875
0.123559
0.143369
0.202507
0.17778
0.195218
0.160931
0.165355
0.0785848
0.0770384
0.287568
0.147788
0.190983
0.187118
0.205383
0.277128
0.117512
0.289447
0.257214
0.164551
0.192505
0.202499
0.195439
0.288564
0.27123
0.134685
0.18614
0.079987
0.15269
0.194291
0.0675179
0.139515
0.141139
0.212493
0.195358
0.130944
-0.00517514
0.0934348
0.0881268
0.0620147
0.105896
0.136476
0.164331
0.196422
0.162619
0.185154
0.278266
0.0899794
0.0570116
0.205977
0.192319
0.209772
0.275575
0.136606
0.206251
0.266984
0.0823231
0.109575
0.186623
0.0741436
0.186406
0.149863
0.186263
0.184944
0.137655
0.135617
0.135011
0.173912
0.136294
0.183345
0.19704
0.14197
0.136341
0.114183
0.164121
0.209707
0.287048
0.277221
0.187574
0.191322
0.191328
0.258871
0.0961861
0.283386
0.0604316
0.17488
0.124079
0.216891
0.139136
0.196626
0.210636
0.116856
0.182196
0.186164
0.28434
0.171773
0.157471
0.141136
0.20321
0.0995551
0.158763
0.0856049
0.270968
0.113423
0.139057
0.116679
0.197638
0.174501
0.187287
0.0320292
0.102574
0.128859
0.123108
0.199493
0.246294
0.129332
0.191036
0.170881
0.19915
0.163914
0.122084
0.223223
0.18683
0.251344
0.216942
0.157114
0.306573
0.191012
0.171231
0.124576
0.192438
0.18
0.191082
0.187416
0.210335
0.287932
0.30258
0.256804
0.171386
0.196045
0.143913
0.173392
0.191445
0.163659
0.17019
0.17207
0.184826
0.182526
0.208391
0.187716
0.195953
0.134061
0.17149
0.0799856
0.106496
0.171211
0.0992475
0.231316
0.171779
0.189485
0.148594
0.18522
0.183918
0.213778
0.10141
0.178201
0.186565
0.0883911
0.192004
0.0917254
0.204519
0.193595
0.0949265
0.185466
0.18634
0.134472
0.193185
0.175297
0.186246
0.201655
0.188375
0.182842
0.204253
0.154728
0.174136
0.219878
0.13608
0.156423
0.185559
0.207116
0.248849
0.185839
0.286695
0.187552
0.169652
0.271944
0.0726055
0.135335
0.285215
0.176001
0.0770238
0.163993
0.147645
0.270454
0.185293
0.191082
0.188256
0.190441
0.188132
0.283579
0.191266
0.213434
0.196604
0.277344
0.198683
0.166197
0.214286
0.0878086
0.08879
0.162109
0.186603
0.179742
0.191052
0.118156
0.188778
0.210664
0.194987
0.304515
0.18871
0.201594
0.187485
0.248905
0.173127
0.281994
0.0842913
0.0833342
0.195858
0.200845
0.169381
0.126034
0.128967
0.146048
0.129841
0.129914
0.147272
0.103678
0.162217
0.126015
0.0921184
0.186003
0.223844
0.192297
0.288745
0.184875
0.201042
0.168991
0.0855962
0.153394
0.221777
0.283241
0.193331
0.135018
0.186131
0.18094
0.181408
0.232427
0.12435
0.0830612
0.184945
0.278086
0.132582
0.276656
0.0832338
0.157788
0.141332
0.200902
0.0785952
0.196865
0.191364
0.110361
0.197627
0.261761
0.137953
0.273032
0.190462
0.188091
0.0680198
0.190347
0.202543
0.090171
0.143473
0.193017
0.121209
0.172092
0.195748
0.257926
0.134469
0.156939
0.0446414
0.150571
0.0697554
0.148639
0.106574
0.161146
0.169936
0.268081
0.211667
0.221912
0.10423
0.199105
0.0406794
0.18969
0.211815
0.209305
0.101008
0.201058
0.282706
0.191344
0.18804
0.0930078
0.206522
0.202137
0.196031
0.185311
0.18235
0.204993
0.254575
0.294963
0.136156
0.198491
0.196264
0.152879
0.129985
0.185872
0.248738
0.143782
0.0589311
0.138002
0.194543
0.147823
0.189335
0.186401
0.147031
0.122043
0.18037
0.192077
0.104863
0.14186
0.192713
0.180241
0.297989
0.177206
0.202814
0.132827
0.0974035
0.129879
0.144459
0.201349
0.200023
0.0459207
0.191145
0.170747
0.0911846
0.184372
0.172801
0.194791
0.127293
0.195367
0.119374
0.206575
0.186945
0.272442
0.106047
0.188435
0.239097
0.176466
0.28007
0.279809
0.145532
0.293619
0.108971
0.249977
0.231755
0.143435
0.185165
0.130376
0.212295
0.19591
0.166767
0.184788
0.178709
0.103719
0.052792
0.121804
0.275786
0.137971
0.284654
0.255198
0.186678
0.249595
0.202998
0.125673
0.141372
0.278494
0.131185
0.193646
0.280743
0.187047
0.10423
0.174225
0.1036
0.205687
0.146052
0.195519
0.168864
0.075986
0.134511
0.16271
0.180604
0.195438
0.0600884
0.202444
0.114581
0.125071
0.210762
0.122835
0.0580185
0.0861604
0.184779
0.196762
0.176537
0.14337
0.0677794
0.206445
0.187731
-0.00047895
0.187676
0.177523
0.082945
0.134496
0.081017
0.199625
0.180413
0.285005
0.229383
0.269446
0.185918
0.25152
0.197901
0.198778
0.0774144
0.164369
0.292975
0.173685
0.152633
0.186364
0.123952
0.0996577
0.197571
0.0734423
0.175004
0.208564
0.193947
0.184533
0.299122
0.139746
0.19922
0.082116
0.0902543
0.198061
0.172159
0.207757
0.174772
0.251997
0.24801
0.186609
0.188506
0.082655
0.119203
0.197167
0.0954475
0.0694373
0.289154
0.262296
0.189313
0.0827957
0.101625
0.0748913
0.2882
0.275364
0.164774
0.152006
0.185321
0.137353
0.0639402
0.148706
0.270769
0.181188
0.197522
0.194907
0.121829
0.190204
0.187551
0.196601
0.0942134
0.0818656
0.061318
0.171524
0.205456
0.136537
0.190243
0.183802
0.187492
0.282435
0.284957
0.17708
0.127112
0.0669497
0.173449
0.045932
0.223008
0.209252
0.190088
0.143964
0.175358
0.175018
0.177054
0.0849275
0.133401
0.198784
0.179893
0.159236
0.278238
0.0790374
0.171432
0.102989
0.184833
0.139931
0.192931
0.206236
0.267507
0.0931341
0.284029
0.181475
0.11505
0.0777735
0.0714597
0.189041
0.154667
0.10249
0.187786
0.127367
0.189897
0.103932
0.197947
0.1367
0.245845
0.283511
0.168133
0.2081
0.272671
0.283497
0.228773
0.0834521
0.296508
0.24949
0.0936179
0.164676
0.293296
0.130001
0.0656684
0.200707
0.274741
0.0952078
0.0634911
0.193659
0.273884
0.0727311
0.168042
0.142316
0.200144
0.0730531
0.0839691
0.281209
0.187775
0.243321
0.276299
0.0267801
0.165002
0.16474
0.188635
0.129682
0.177216
0.177623
0.269139
0.196404
0.0833114
0.0927411
0.128097
0.0892267
0.150502
0.170697
0.200856
0.139309
0.13768
0.165506
0.213588
0.196167
0.0717553
0.188435
0.235376
0.145857
0.21554
0.200779
0.173266
0.182584
0.193555
0.19392
0.173761
0.181779
0.182033
0.177935
0.286427
0.267143
0.193731
0.237794
0.195409
0.178094
0.190508
0.120218
0.197194
0.179552
0.153535
0.262614
0.170197
0.142288
0.05674
0.304721
0.186627
0.186895
0.161704
0.208122
0.201649
0.155858
0.190899
0.209766
0.194793
0.126686
0.10229
0.126889
0.178495
0.0836244
0.199905
0.235036
0.0799452
0.196332
0.171432
0.293035
0.19618
0.139248
0.141853
0.258269
0.193103
0.2075
0.181524
0.161764
0.0848846
0.0829935
0.202998
0.184612
0.0572088
0.269962
0.106065
0.272645
0.12077
0.162702
0.178826
0.108805
0.203912
0.149598
0.146785
0.285566
0.278778
0.10495
0.256285
0.198615
0.151731
0.172751
0.0979006
0.109277
0.285143
0.104007
0.222626
0.193234
-0.0765284
0.194243
0.185582
0.211766
0.19516
0.0706437
0.192517
0.172314
0.167032
0.196203
0.0925175
0.106099
0.241872
0.228694
0.0828939
0.271317
0.0835577
0.167757
0.184187
0.234916
0.155545
0.211251
0.195628
0.106658
0.1393
0.100805
0.16347
0.0891058
0.0642839
0.208156
0.182714
0.139729
0.277151
0.115078
0.120299
0.183274
0.186598
0.147405
0.277967
0.186259
0.108513
0.29178
0.163512
0.27872
0.181352
0.0884257
0.105414
0.194821
0.0521485
0.168739
0.181076
0.161643
0.135187
0.165132
0.16826
0.137157
0.192644
0.0914817
0.102056
0.208486
0.0898288
0.272028
0.109443
0.213799
0.196322
0.0920097
0.0816606
0.0787681
0.182338
0.275546
0.135175
0.209675
0.16671
0.082882
0.113864
0.0834778
0.278868
0.0881353
0.0975914
0.0796531
0.101492
0.238109
0.226812
0.143758
0.13714
0.119983
0.111277
0.116584
0.124417
0.0905945
0.100148
0.198014
0.288933
0.288199
0.207845
0.0804764
0.115917
0.177318
0.107275
0.176903
0.104078
0.0903936
0.193239
0.147025
0.0971477
0.211046
0.0180871
0.18753
0.0729535
0.0672902
0.193209
0.289676
0.205426
0.161442
0.13646
0.194501
0.060768
0.186355
0.279379
0.194173
0.235334
0.10534
0.127198
0.194563
0.14262
0.169368
0.281984
0.176348
0.182785
0.137856
0.184465
0.206152
0.278125
0.18459
0.192494
0.227997
0.141678
0.0704568
0.119829
0.120145
0.0621272
0.166333
0.157457
0.278011
0.184406
0.294506
0.153523
0.0996276
0.0321973
0.0827261
0.185432
0.18141
0.288384
0.215015
0.13666
0.15364
0.145832
0.117187
0.205602
0.16894
0.291997
0.136757
0.115359
0.0262616
0.120287
0.147805
0.133235
0.129148
0.127853
0.12478
0.195701
0.0929735
0.188896
0.106427
0.0885999
0.0913594
0.0746263
0.225628
0.186354
0.163123
0.187502
0.273702
0.090798
0.237892
0.0975403
0.273624
0.202057
0.191031
0.20135
0.213192
0.195411
0.14998
0.160409
0.141003
0.118504
0.122547
0.128884
0.134304
0.149447
0.158662
0.209878
0.0790156
0.201437
0.288747
-0.0381998
0.17168
0.134211
0.127229
0.185866
0.0919466
0.207892
0.288904
0.110457
0.104519
0.124418
0.13163
0.199199
0.178937
0.111031
0.300377
0.192975
0.238614
0.214582
0.0625587
0.180761
0.0985244
0.140585
0.293927
0.0304634
0.270313
0.0873834
0.195369
0.274652
0.285234
0.16117
0.0786833
0.198872
0.206518
0.185073
0.161155
0.0780562
0.150141
0.18581
0.168834
0.205981
0.184694
0.0744412
0.053254
0.286853
0.13625
0.202071
0.176169
0.291752
0.299132
0.178657
0.286682
0.112686
0.255976
0.234646
0.0910806
0.0978202
0.123677
0.185985
0.0819914
0.199142
0.185849
0.13889
0.176593
0.149998
0.280346
0.104511
0.131779
0.189744
0.142628
0.047684
0.172504
0.25002
0.136394
0.151551
0.157748
0.150673
0.193042
0.0986472
0.109045
0.200078
0.290599
0.202434
0.20322
0.201959
0.165736
0.137792
0.139189
0.184523
0.173884
0.125584
0.14074
0.20237
0.193229
0.211883
0.194489
0.0693731
0.0779316
0.0925263
0.166801
0.197359
0.117435
0.17736
0.127118
0.282318
0.182159
0.134239
0.188727
0.180836
0.107548
0.16735
0.180365
0.199116
0.0641456
0.289354
0.217076
0.281134
0.281407
0.203621
0.190017
0.192415
0.213499
0.196355
0.187747
0.137523
0.295014
0.286864
0.135294
0.102514
0.138799
0.165248
0.170107
0.153091
0.135378
0.189662
0.130274
0.271794
0.263046
0.199821
0.185302
0.0803538
0.0992461
0.136579
0.245423
0.0850166
0.196535
0.176881
0.187256
0.0853677
0.121175
0.225914
0.282013
0.1707
0.282178
0.0833043
0.112579
0.294785
0.0817788
0.0809363
0.186722
0.284308
0.281661
0.170965
0.0166527
0.186295
0.27515
0.137251
0.278463
0.143875
0.21179
0.19224
0.169147
0.107578
0.300753
0.13047
0.0620181
0.177
0.149457
0.191748
0.150743
0.104176
0.176043
0.204867
0.111771
0.239218
0.188165
0.20278
0.144219
0.196801
0.281406
0.0900927
0.185443
0.176538
0.17026
0.292876
0.0842472
0.1718
0.296571
0.186145
0.186059
0.296802
0.176587
0.186007
0.138804
0.146305
0.178925
0.109585
0.121576
0.199908
0.0947103
0.162887
0.116883
0.117318
0.136891
0.116768
0.172868
0.13548
0.141447
0.172474
0.200762
0.173643
0.0829052
0.0816393
0.193696
0.0848829
0.152105
0.268472
0.0468395
0.261361
0.174193
0.179996
0.108695
0.157474
0.102941
0.298613
0.101551
0.136422
0.179681
0.233847
0.182006
0.122634
0.0484804
0.137713
0.192245
0.0850097
0.147107
0.157936
0.135623
0.131211
0.0877456
0.167908
0.168396
0.169456
0.134507
0.164664
0.198274
0.273067
0.182588
0.291856
0.272264
0.211167
0.194156
0.198026
0.184999
0.0747489
0.0899609
0.191812
0.196231
0.213088
0.139137
0.160172
0.11462
0.0831856
0.173159
0.195126
0.0854102
0.074743
0.186994
0.168603
0.281001
0.0425327
0.199213
0.172791
0.303324
0.111888
0.086214
0.287691
0.0930507
0.203965
0.0763499
0.0849614
0.101102
0.170041
0.0874038
0.287983
0.0910762
0.208095
0.18174
0.199216
0.265851
0.0584574
0.150538
0.193272
0.0915086
0.150716
0.161726
0.135965
0.136712
0.158955
0.0825675
0.291323
0.133931
0.145146
0.119232
0.0746846
0.282885
0.170189
0.191242
0.175575
0.297011
0.118777
0.180774
0.189414
0.241522
0.121836
0.291039
0.136078
0.16454
0.200361
0.185848
0.0827699
0.192537
0.109418
0.2892
0.281362
0.113764
0.104227
0.167681
0.205832
0.186889
0.18928
0.16159
0.0803379
0.139184
0.168968
0.154713
0.137604
0.276498
0.15678
0.284206
0.13959
0.138988
0.193401
0.186415
0.0943755
0.0912298
0.102295
0.055627
0.136576
0.232168
0.203004
0.188053
0.263158
0.193714
0.2054
0.105254
0.112969
0.245602
0.227204
0.231744
0.178359
0.28085
0.188425
0.0847067
0.17758
0.109105
0.2473
0.0769956
0.0918041
0.19145
0.277662
0.161738
0.0943376
0.0771605
0.186861
0.19139
0.185794
0.08517
0.21533
0.182245
0.17166
0.186556
0.172823
0.199153
0.0706506
0.131374
0.12337
0.10485
0.0802041
0.134972
0.154939
0.133915
0.248368
0.0821001
0.28515
0.0986925
0.185552
0.0583571
0.0790513
0.0981566
0.169138
0.186945
0.288215
0.195783
0.0779599
0.229862
0.101483
0.192227
0.275369
0.197851
0.129555
0.140714
0.155071
0.218095
0.195979
0.194423
0.205995
0.295701
0.123143
0.177975
0.186375
0.185566
0.275054
0.275719
0.100389
0.08052
0.207331
0.0991095
0.301484
0.1191
0.150859
0.137451
0.123214
0.131121
0.184271
0.272913
0.175869
0.134643
0.129145
0.111826
0.1012
0.219938
0.270524
0.185466
0.285838
0.189514
0.168414
0.130349
0.121354
0.254253
0.17914
0.197903
0.187635
0.166858
0.283682
0.132092
0.0817717
0.242959
0.198174
0.0827845
0.176472
0.191453
0.0262025
0.180287
0.290695
0.186603
0.165195
0.157288
0.185388
0.27378
0.20262
0.260368
0.276025
0.0956214
0.21258
0.196286
0.180343
0.185551
0.165434
0.107511
0.296701
0.0753827
0.196163
0.090429
0.0697996
0.102769
0.285549
0.201683
0.271504
0.146884
0.189423
0.170241
0.208619
0.186923
0.278884
0.275841
0.0734359
0.17167
0.257762
0.156825
0.0924411
0.13631
0.185267
0.189401
0.223231
0.0886185
0.10356
0.297843
0.0928559
0.188163
0.113485
0.17427
0.269976
0.187122
0.216547
0.174688
0.29734
0.123675
0.0909173
0.175219
0.137145
0.0822297
0.0930273
0.0199058
0.103513
0.249795
0.176016
0.281148
0.193981
0.131546
0.100021
0.13223
0.178246
0.189059
0.21951
0.0742237
0.0715019
0.0369859
0.169232
0.168197
0.265703
0.119132
0.28649
0.163268
0.188418
0.194467
0.208646
0.198454
0.203852
0.282684
0.146324
0.186164
0.164566
0.296651
0.0840613
0.200549
0.141229
0.149745
0.117551
0.122885
0.0631221
0.0758599
0.182657
0.13626
0.24472
0.187648
0.136178
0.268607
0.148534
0.165862
0.159475
0.195177
0.205145
0.164146
0.193096
0.186405
0.186003
0.138762
0.186453
0.194747
0.080527
0.194259
0.122888
0.10435
0.295126
0.129769
0.136122
0.150748
0.162569
0.098649
0.177873
0.0717714
0.194896
0.186796
0.0716458
0.160702
0.0946387
0.177303
0.095434
0.182983
0.0767216
0.0453917
0.278109
0.141735
0.227909
0.0772838
0.262441
0.145806
0.183872
0.145958
0.139188
0.11366
0.122125
0.134258
0.133406
0.159588
0.148929
0.195736
0.0835157
0.202779
0.186029
0.158957
0.288844
0.113101
0.162807
0.0989357
0.183514
0.180268
0.173925
0.0965937
0.093786
0.193318
0.0761058
0.141026
0.0733026
0.297187
0.18413
0.136492
0.175812
0.0847124
0.0908453
0.20022
0.197079
0.135099
0.155012
0.0544449
0.168633
0.0699056
0.177012
0.193696
0.13836
0.100346
0.17724
0.14852
0.121365
0.112066
0.138597
0.124804
0.145832
0.138049
0.119636
0.185243
0.178896
0.181342
0.273732
0.225665
0.282975
0.124269
0.289031
0.181
0.0880155
0.188979
0.187458
0.106859
0.184937
0.145388
0.126907
0.12769
0.125354
0.141975
0.117489
0.0861293
0.243938
0.0792141
0.190003
0.183969
0.175092
0.202995
0.158657
0.270562
0.144108
0.208635
0.259907
0.143739
0.125423
0.123294
0.13096
0.134315
0.14954
0.182443
0.189727
0.181036
0.160168
0.153071
0.174168
0.214364
0.285828
0.1869
0.18673
0.124318
0.206917
0.0978083
0.181013
0.191196
0.111413
0.136269
0.213086
0.106875
0.199503
0.178232
0.226468
0.240133
0.197945
0.169003
0.168445
0.189185
0.106088
0.2032
0.118421
0.13513
0.143012
0.203907
0.174742
0.26505
0.18657
0.290943
0.268304
0.282259
0.0813778
0.304882
0.187374
0.180995
0.148998
0.287088
0.137449
0.196155
0.224723
0.220758
0.077359
0.299293
0.215606
0.138072
0.092939
0.197111
0.250058
0.286734
0.191731
0.11797
0.202601
0.182802
0.137436
0.0480853
0.1376
0.155931
0.151951
0.138032
0.164763
0.197976
0.203124
0.230403
0.0609976
0.121318
0.0854178
0.147192
0.19264
0.16677
0.0929467
0.23362
0.204051
0.0934276
0.196559
0.302922
0.104505
0.189268
0.0977007
0.0836226
0.0849815
0.269146
0.196106
0.0794745
0.174222
0.173238
0.141006
0.148719
0.116205
0.123702
0.108526
0.108332
0.130474
0.280246
0.0974096
0.111761
0.207173
0.301212
0.111348
0.120713
0.295688
0.259516
0.185208
0.246698
0.288136
0.168292
0.288641
0.17241
0.175946
0.0449127
0.184287
0.0921245
0.281558
0.162431
0.18715
0.173094
0.305181
0.276177
0.106206
0.187094
0.0965119
0.276529
0.110317
0.17169
0.0838707
0.173548
0.272345
0.193896
0.28243
0.198971
0.185431
0.218478
0.21334
0.197256
0.188075
0.274194
0.168059
0.269
0.195059
0.28826
0.275481
0.2882
0.101962
0.244646
0.086336
0.247428
0.0849026
0.206741
0.191773
0.0852651
0.106125
0.295053
0.203932
0.271208
0.264212
0.0884421
0.170807
0.165261
0.193146
0.196812
0.276964
0.287315
0.110195
0.187366
0.12322
0.279751
0.116915
0.173139
0.16445
0.204297
0.190114
0.146737
0.118369
0.113203
0.187552
0.202864
0.0896423
0.0716262
0.177161
0.182466
0.111107
0.175213
0.204845
0.188616
0.163621
0.178762
0.134848
0.193859
0.114156
0.106612
0.137814
0.131126
0.235019
0.127904
0.121252
0.138556
0.201961
0.18061
0.199268
0.251204
0.0451532
0.182084
0.183157
0.128518
0.128982
0.146832
0.201077
0.266844
0.172294
0.190926
0.190358
0.297832
0.14363
0.207952
0.187825
0.197603
0.180666
0.187242
0.18553
0.280357
0.101153
0.281664
0.164544
0.0871779
0.0481126
0.131339
0.0986884
0.180935
0.0973423
0.252757
0.19796
0.186196
0.17595
0.252097
0.186298
0.192948
0.201236
0.234663
0.164385
0.126052
0.0356978
0.0855146
0.127361
0.20498
0.0714515
0.130379
0.103408
0.217782
0.192635
0.0890436
0.103638
0.0793524
0.0589407
0.244901
0.187457
0.0955472
0.285824
0.213673
0.0960217
0.187954
0.139099
0.159296
0.182064
0.130608
0.0773801
0.119345
0.210095
0.191441
0.193962
0.0805351
0.0921938
0.200364
0.0812926
0.19246
0.159457
0.190544
0.155699
0.187364
0.170375
0.189578
0.29239
0.233591
0.194104
0.106703
0.185126
0.198559
0.289027
0.0140193
0.116391
0.190561
0.183726
0.0940109
0.213106
0.19549
0.165984
0.21052
0.149683
0.137789
0.277074
0.186588
0.209915
0.0465646
0.169385
0.193224
0.119151
0.119286
0.138201
0.11201
0.123685
0.140358
0.2564
0.162951
0.138409
0.215915
0.0869047
0.190837
0.194256
0.173778
0.173819
0.195558
0.282829
0.0783884
0.081777
0.176814
0.115763
0.196102
0.179009
0.174391
0.0688478
0.13657
0.0942462
0.189482
0.187799
0.258772
0.279354
0.103433
0.213452
0.196343
0.143704
0.193772
0.20047
0.193651
0.186106
0.200408
0.0876531
0.300215
0.302233
0.187622
0.204784
0.274466
0.0527786
0.292014
0.18286
0.256111
0.197701
0.0726986
0.135686
0.116873
0.136573
0.00632255
0.151797
0.186259
0.0760287
0.0875433
0.219659
0.237745
0.134401
0.21027
0.140523
0.186826
0.188448
0.0762126
0.137659
0.171115
0.175501
0.0678716
0.200492
0.0825733
0.284806
0.175265
0.248904
0.197858
0.188134
0.277291
0.15348
0.143563
-0.00960752
0.0757646
0.184347
0.176541
0.0838424
0.277774
0.0500985
0.178771
0.191517
0.297347
0.167252
0.174143
0.191138
0.137686
0.143587
0.162507
0.155791
0.303651
0.0841639
0.198904
0.139128
0.166608
0.129914
0.146675
0.127205
0.0803996
0.204222
0.227741
0.192577
0.231022
0.20228
0.184368
0.185193
0.097134
0.202007
0.185821
0.194489
0.198073
0.212978
0.178361
0.176603
0.220025
0.0952279
0.101541
0.189902
0.203518
0.164476
0.0901545
0.282641
0.17078
0.172166
0.194479
0.059134
0.28696
0.197648
0.170441
0.254604
0.174216
0.178051
0.0954951
0.145374
-0.0539298
0.128248
0.0060883
0.082791
0.086922
0.188874
0.145218
0.138217
0.13367
0.204164
0.0895933
0.0854121
0.188748
0.294241
0.167173
0.114133
0.0625678
0.152171
0.216284
0.195369
0.0916575
0.195273
0.28726
0.169025
0.168597
0.167553
0.118159
0.292141
0.268449
0.201563
0.207938
0.186986
0.179744
0.181518
0.258876
0.10974
0.189304
0.0945635
0.0853665
0.0739446
0.15433
0.204998
0.173533
0.11802
0.120225
0.0896431
0.0809438
0.278588
0.158561
0.0713254
0.200136
0.18948
0.282994
0.0751291
0.196823
0.180938
0.186078
0.270418
0.19607
0.0943666
0.0843542
0.282799
0.108878
0.154158
0.184038
0.142931
0.0882822
0.137411
0.140111
0.264198
0.139563
0.108931
0.19804
0.179601
0.1963
0.205429
0.182071
0.283206
0.277322
0.178899
0.216643
0.0903025
0.290502
0.204151
0.0987799
0.103832
0.140055
0.291009
0.128494
0.141979
0.187025
0.153496
0.170748
0.190102
0.137429
0.297962
0.213121
0.186388
0.0905456
0.13824
0.0571144
0.182805
0.0803652
0.238548
0.197868
0.191427
0.165191
0.176163
0.1025
0.0853334
0.195279
0.196936
0.126285
0.236619
0.0838686
0.107027
0.0874428
0.0971497
0.0608654
0.1849
0.163279
0.186739
0.123626
0.183461
0.203679
0.209979
0.188912
0.190576
0.203465
0.187986
0.123514
0.0790442
0.160196
0.293315
0.178146
0.106404
0.194887
0.194908
0.111765
0.135281
0.174245
0.175486
0.0576465
0.0491934
0.200425
0.115324
0.192605
0.206934
0.176799
0.20173
0.201826
0.116675
0.151582
0.123813
0.135812
0.307679
0.262218
0.07762
0.197531
0.188294
0.173625
0.268458
0.259963
0.136946
0.115185
0.198205
0.140073
0.171224
0.189745
0.198035
0.197907
0.0743878
0.27288
0.191013
0.114019
0.16568
0.235985
0.207344
0.0860142
0.189191
0.218613
0.178758