/*--------------------------------*- C++ -*----------------------------------*\
| =========                 |                                                 |
| \\      /  F ield         | OpenFOAM Extend Project: Open source CFD        |
|  \\    /   O peration     | Version:  1.6-ext                               |
|   \\  /    A nd           | Web:      www.extend-project.de                 |
|    \\/     M anipulation  |                                                 |
\*---------------------------------------------------------------------------*/
FoamFile
{
    version     2.0;
    format      ascii;
    class       surfaceScalarField;
    location    "2000";
    object      phi;
}
// * * * * * * * * * * * * * * * * * * * * * * * * * * * * * * * * * * * * * //

dimensions      [0 3 -1 0 0 0 0];

internalField   nonuniform List<scalar> 
48217
(
1.87687e-06
8.15939e-05
-0.00036395
0.000280479
-8.28805e-05
8.11513e-05
-6.61134e-05
6.78426e-05
4.86989e-05
-5.73959e-05
0.000505422
-0.000496725
5.27408e-05
-5.89617e-05
-8.67676e-05
9.29885e-05
-7.56554e-06
8.49467e-06
3.13776e-06
-4.06688e-06
-3.92398e-05
2.78797e-05
-5.04982e-05
6.18583e-05
-3.05495e-05
0.000135842
5.08156e-05
-0.000156108
-0.000253187
-0.000331191
0.000384547
0.000199831
-3.4059e-05
-1.12486e-05
-7.60288e-06
5.29105e-05
7.59743e-05
-0.000227493
0.000231338
-7.98197e-05
0.000553889
-0.000109849
-0.00044404
-0.00035433
0.00023758
-0.000166125
0.000282876
-7.75948e-05
-8.30302e-05
0.000105951
5.46741e-05
4.60026e-06
0.000172238
-0.000523882
0.000347043
-0.000124385
7.76389e-05
9.98255e-05
-5.3079e-05
0.000219939
-7.40233e-05
4.27071e-05
-0.000188622
0.000220089
-0.000152459
0.000207012
-0.000274642
-2.91903e-05
-9.83918e-06
-2.92903e-05
6.83197e-05
4.33672e-05
7.01355e-06
0.000114248
-0.000164629
-0.000525499
0.000472596
4.59975e-05
6.90605e-06
8.11869e-05
-6.19698e-05
-5.74593e-05
3.82422e-05
0.000103873
-0.0003535
-5.10073e-05
0.000300634
-7.92837e-07
-2.78874e-05
6.19533e-05
-3.32731e-05
3.62201e-05
-1.97495e-05
-5.34658e-05
3.69952e-05
-0.000322978
0.000283712
-4.2152e-06
4.34806e-05
-0.000194396
0.000177426
0.000246822
-0.000229852
-0.000178629
0.00015747
0.000220354
-0.000199196
4.44941e-06
-9.36373e-06
5.07375e-06
-1.59252e-07
-5.0181e-05
5.14651e-05
-4.05266e-05
-2.61712e-05
1.68576e-05
-6.89654e-05
7.82791e-05
1.4168e-05
-0.000105115
-2.72821e-05
0.000118229
0.000183272
-0.000697415
-0.000135289
0.000649431
-7.51249e-05
-2.63772e-05
0.000108545
-7.04299e-06
0.000117508
-9.57769e-05
1.07616e-06
-2.28073e-05
0.000196999
-0.000171123
4.75905e-06
-3.0635e-05
0.000164687
-0.000320561
-0.000263995
0.000419869
0.000554689
-0.00045003
-0.000520156
0.000415497
-1.11922e-05
-0.000100281
3.01202e-05
8.13531e-05
-7.56325e-06
-7.26752e-05
2.44936e-05
5.57449e-05
4.72588e-05
-0.000132871
0.000131852
-4.62393e-05
6.91076e-05
-5.42754e-05
6.43017e-05
-7.91339e-05
-9.69461e-05
0.000180361
0.000116434
-0.000199849
0.000181672
-3.47488e-05
-0.000159755
1.28322e-05
-5.91626e-06
9.65973e-05
-1.99041e-07
-9.0482e-05
0.000160641
-3.75497e-05
-0.000174
5.09089e-05
0.000839819
-0.000233683
-0.000606136
8.60718e-06
6.12648e-05
-0.000323158
0.000253286
-0.00040097
0.000241483
0.00113011
-0.000970628
9.72442e-06
-8.05406e-05
-2.8182e-05
9.89981e-05
-7.93829e-07
1.61881e-05
-1.56114e-05
2.17106e-07
-0.000152539
-2.37051e-05
0.00013979
3.64538e-05
-1.53346e-05
-0.000112347
0.000146928
-1.92459e-05
6.72003e-05
0.000351086
-0.00022976
-0.000188526
-0.000161407
-0.00020082
0.000194933
0.000167294
-0.000154922
-0.000152432
0.000155664
0.000151691
-0.000428159
0.000294206
0.00057083
-0.000436877
-2.42315e-05
6.03217e-05
-2.86469e-05
-7.44334e-06
3.26837e-05
-3.09104e-05
4.40081e-05
-4.57814e-05
-0.000159111
0.000253538
0.000873198
-0.000967624
-0.000262864
0.000203836
-0.000146678
0.000205706
0.000179661
-0.000388787
-0.000131263
0.000340388
7.05038e-05
-8.22803e-05
8.90297e-05
-7.72532e-05
-2.70349e-05
7.61397e-06
4.61769e-05
-2.6756e-05
2.019e-05
-2.0285e-05
4.23947e-05
-4.22998e-05
4.81455e-05
-0.000146161
-0.000427482
0.000165271
-0.000167125
1.85422e-06
-0.00053326
0.000429397
0.000451786
-0.000347923
3.05184e-06
2.09794e-05
-9.2412e-05
6.83808e-05
-0.000174315
-2.58639e-05
0.000200178
8.67118e-06
3.49484e-05
-1.3468e-05
-3.01515e-05
0.000354254
-8.44075e-05
0.000195533
-0.000465379
-8.36631e-05
8.25613e-05
1.10177e-06
0.000195305
5.3249e-05
-3.93016e-05
-0.000209252
3.86288e-05
-0.000188959
5.95293e-05
9.08007e-05
0.000289104
-3.83637e-06
1.74306e-05
-0.000302699
0.000535669
-0.000202578
-0.000563204
0.000230113
-0.000160714
0.000223521
0.000171806
-0.000234612
1.95865e-05
-3.49238e-06
0.000133375
-0.000149469
7.14799e-05
-6.22134e-05
0.000169476
-0.000178743
9.38326e-05
3.21785e-06
2.40451e-05
-0.000121095
-8.84616e-05
3.27368e-05
5.57248e-05
0.000137877
0.000233452
-0.000156641
-0.000214688
2.89883e-05
-8.38549e-05
2.44957e-05
3.03709e-05
0.000233474
2.06039e-05
-0.000216876
-3.72028e-05
7.96528e-05
-4.19269e-05
0.000283917
-0.000321642
-0.00082964
-0.000629236
0.000713039
0.000745836
0.000283102
-0.000296597
-0.000182618
0.000196112
-0.00026823
-7.71106e-05
8.62115e-05
0.000259129
4.25946e-05
-0.000107313
-0.000466213
0.000530931
-0.00019627
-6.3901e-05
0.000128969
0.000131202
0.000206213
3.64006e-05
-4.84308e-05
-0.000194183
6.28583e-06
7.62152e-06
-0.000127367
0.000113459
3.82044e-05
-7.69958e-05
7.24833e-05
-3.36918e-05
-6.32651e-05
9.74742e-05
-0.000113062
7.88528e-05
-0.000484157
-0.000393112
0.000284542
0.000592727
-5.26635e-05
0.000247912
-0.000250364
5.51157e-05
1.42116e-05
1.86241e-05
-5.85826e-06
-2.69774e-05
-5.40672e-05
5.27523e-05
8.02843e-05
-7.89694e-05
-0.000288332
-0.000238342
0.000182815
0.000343859
9.85335e-06
0.000267739
-0.000268986
-5.64543e-05
-3.10672e-06
4.90231e-06
5.46586e-05
1.04798e-05
-1.34842e-05
2.11276e-06
8.91662e-07
0.000126153
-0.00010593
-0.000249988
0.000229766
-0.000257512
-6.56109e-05
0.000256347
6.67755e-05
3.18152e-05
8.58681e-05
-0.000117683
-0.000168418
-4.5494e-05
0.000213912
-0.000196436
-5.23451e-05
0.000248782
5.57619e-05
0.000241051
-0.000117455
-0.000179359
7.51633e-05
0.000260343
-0.000138381
-0.000197126
-0.000391426
-2.6587e-05
0.000137338
0.000280676
8.98096e-05
-8.40473e-06
0.000408852
-0.000490257
-0.000102541
-0.0002001
0.000227395
7.52465e-05
0.00010023
9.76548e-05
-0.000122869
-7.50158e-05
-0.000380701
-0.000195416
0.000335929
0.000240188
-6.36317e-05
2.52121e-05
1.40139e-05
2.44056e-05
-0.000134014
0.000160965
-2.6951e-05
0.000183487
-0.000203343
-0.000128961
0.000148817
-0.000579451
7.9885e-05
0.000568116
-6.85502e-05
0.000508266
-0.000526218
0.000587692
-0.00056974
-0.000270817
0.000227253
-0.000163009
0.000206574
0.000350389
-1.00851e-05
-0.000316348
-2.3956e-05
-5.96332e-05
4.39371e-05
1.97032e-05
-4.00713e-06
0.00010839
-2.72947e-05
-9.69827e-05
1.58874e-05
6.6052e-05
-4.31978e-05
-5.14198e-05
2.85657e-05
3.88295e-05
-3.27429e-05
-2.86821e-05
2.25955e-05
8.42974e-05
-4.20639e-05
-5.97732e-05
1.75397e-05
2.12355e-05
0.000240031
-0.000304433
4.31666e-05
-0.000372777
-0.000366159
0.000491334
0.000247602
-0.000169141
0.00018393
-1.47895e-05
6.03538e-05
5.90297e-05
-2.38215e-05
-9.55621e-05
6.1196e-05
7.24743e-05
-2.99709e-05
-0.000103699
7.3578e-05
7.03894e-05
-2.90056e-05
-0.000114962
-0.000143118
0.000178486
-0.000206843
0.000171475
-0.000380382
0.000527387
0.000105504
-0.000252509
-0.000254007
0.000354669
-0.000292627
0.000191965
-0.000158427
-0.000162104
0.000263835
5.66958e-05
0.000639813
0.000148223
-0.000144615
-0.000643421
-0.000322584
5.18845e-05
0.000418966
-0.000148267
-0.000280707
6.6007e-05
0.000275948
-6.12476e-05
-4.13955e-05
4.55346e-05
8.00029e-05
-8.4142e-05
-0.000298534
0.000352074
-0.000324356
-0.000213032
0.000299719
-0.000205803
0.000119117
0.000565121
-0.000372605
0.000165718
-0.000358235
0.00027201
1.55337e-05
-0.00027415
-1.33944e-05
5.15355e-05
7.74891e-05
-0.000531525
0.0004025
-0.000358716
-0.000101545
0.000438701
2.15602e-05
-0.00059797
-0.000284929
0.000264
0.000618899
-6.12275e-05
2.48679e-05
0.000104721
-6.83617e-05
7.83553e-06
8.57334e-05
-6.58305e-05
-2.77385e-05
0.000218955
5.90652e-05
1.20488e-05
-0.000290069
0.000389205
0.000204828
-0.000504224
-0.0008323
0.000591193
0.000655233
-0.000414126
6.38967e-05
-7.13839e-05
-2.99701e-06
1.04842e-05
0.000102775
-0.000465926
-3.35192e-05
0.00039667
-3.88428e-05
5.7873e-05
0.000126561
-0.000145592
-0.000327312
0.000453896
0.000187708
-0.000314292
5.52501e-05
-4.00312e-05
3.27566e-05
-4.79754e-05
0.000763277
-0.000391273
0.000681926
-0.00105393
5.74558e-05
-6.71175e-05
-3.98756e-05
4.95373e-05
7.09861e-05
-5.74404e-05
5.02231e-05
-6.37688e-05
9.14369e-05
0.000628206
-0.000154523
-0.000191602
-0.00010373
0.00010473
0.000190603
-0.00016136
-0.000664681
0.000826041
-8.30887e-05
-0.000456924
0.000364064
0.000175949
0.000141431
-5.98912e-05
-0.000279942
0.000198402
0.000148642
-9.17192e-05
-0.000288666
0.000231743
-0.00052679
0.000707488
0.000179111
-0.000359809
0.00027638
0.000191255
-0.000246231
-0.000221403
9.24254e-05
-5.00525e-05
-8.81063e-05
4.57334e-05
-0.000102868
9.88808e-05
-0.000107158
0.000111145
-3.08733e-05
-0.000199736
2.52913e-05
0.000205318
5.38896e-05
-1.96894e-05
-0.000107021
7.28211e-05
-0.000322344
-0.000353144
0.000157841
0.000517647
6.96938e-05
0.000132012
-2.85499e-06
-0.000198851
0.000175871
0.00039666
-0.000288011
-0.00028452
6.53671e-05
-5.16012e-05
-5.57706e-05
4.20047e-05
-0.000118475
0.000158178
0.00026446
-0.000304162
-2.19661e-05
-5.36657e-05
-0.000342717
0.000418349
5.03827e-06
0.000207886
6.68034e-05
-0.000279728
-0.000337865
0.000380366
0.000221061
-0.000263562
-0.000562935
0.000824954
0.000555985
-0.000818004
0.000751828
-0.000851836
-0.00063353
0.000733538
9.90403e-05
-0.000166556
-0.000297823
0.000365339
2.03364e-05
-2.88189e-05
8.48254e-06
-3.62746e-05
3.3411e-05
-3.99358e-05
4.27994e-05
-2.58174e-05
-0.000340229
-2.5379e-05
0.000407249
-0.000564553
-3.50687e-05
0.000192373
9.17928e-05
-6.27477e-05
-9.56091e-05
6.6564e-05
9.86942e-05
-0.000132701
0.000121616
-8.76096e-05
5.95421e-05
-6.44609e-05
-0.000176262
0.00018118
7.62097e-05
-6.53291e-05
-0.000116058
0.000105177
0.000116124
-0.000193255
-0.000146601
0.000223732
7.48641e-05
-6.48452e-05
-2.0986e-05
1.09672e-05
-8.23294e-05
-0.000273693
7.34448e-05
0.000282578
-0.000161714
0.000200244
-0.000220127
0.000181597
-2.14404e-05
1.45962e-06
-4.331e-05
6.32908e-05
-8.50597e-06
-0.000132662
0.000141168
6.17014e-05
0.000169134
-0.0002505
1.96644e-05
-0.000434603
-0.000232139
0.000434689
0.000232053
-0.000573022
0.000143753
0.000633995
-0.000204726
-3.94517e-09
0.000133871
-0.000133867
0.000100607
-0.000220127
-0.000168551
0.000288072
-0.000796756
0.000632113
0.000164643
-0.000140106
4.47172e-05
-2.13227e-05
0.000116712
-0.000152074
0.000120783
8.36262e-05
-5.23345e-05
0.000968742
-2.76311e-05
-0.000941111
8.34137e-05
2.86896e-05
-2.7963e-05
-8.41404e-05
-2.47921e-05
-0.000131089
0.000155881
-0.000224918
2.74949e-05
0.000225299
-2.78758e-05
5.32237e-05
-6.40046e-05
-5.57359e-05
6.65168e-05
0.000501647
-0.000651845
0.00051082
-0.000360622
-0.00029273
-4.064e-05
5.42022e-05
-2.57891e-05
-2.84131e-05
0.000136999
-4.6784e-05
2.22162e-05
-0.000112432
-0.000107064
4.65589e-05
7.85243e-05
-1.80189e-05
0.000666543
-0.000720498
-0.000360593
0.000414548
-0.000262876
-0.000199178
0.000207414
0.00025464
-1.89055e-05
1.00202e-05
0.000186042
-0.000177157
-0.000101019
0.000112091
3.99953e-05
-5.10669e-05
8.17822e-05
2.28696e-05
-2.96874e-06
-0.000101683
-7.13798e-05
7.84618e-05
0.000212874
-0.000219956
-1.74376e-05
2.54412e-05
5.19985e-05
-6.00021e-05
-0.000136175
-0.000270883
0.000171227
0.000235831
-0.000240105
-3.72191e-06
0.000121617
2.9187e-05
-1.33503e-05
-0.000137454
2.97704e-05
-0.000151294
0.000123394
-1.87001e-06
-7.1704e-05
0.000140177
-0.000168469
9.99959e-05
-0.000152969
-2.53979e-05
2.86782e-05
0.000149689
-0.0001903
0.000208048
9.94061e-06
-2.76893e-05
7.0899e-05
7.3036e-05
-7.68899e-05
-6.70451e-05
9.56895e-05
-9.19599e-05
-5.23566e-05
4.86269e-05
5.20613e-05
-0.000161136
-0.000125416
0.000234491
-3.86262e-05
-3.17174e-05
-2.86014e-05
9.8945e-05
0.000503772
-0.000472182
-3.56683e-05
4.07838e-06
-4.33575e-05
2.59313e-05
2.10169e-05
-3.59077e-06
-2.64569e-05
-2.28138e-05
2.33095e-05
2.59611e-05
5.02374e-05
0.000168775
-5.63507e-05
-0.000162661
3.90452e-05
6.40267e-05
-6.1177e-05
-4.18949e-05
-0.000211695
0.000208943
-1.10227e-05
1.37746e-05
-0.000162951
-0.000314184
0.000406355
7.07804e-05
-6.54715e-05
-0.000168785
0.000126447
0.000107809
4.9659e-05
-2.20337e-05
-2.39238e-05
-3.70065e-06
8.00196e-05
-6.30837e-05
8.60151e-05
-0.000102951
-3.62438e-05
3.47412e-05
-2.46661e-05
-0.000242542
7.96651e-05
-6.95431e-05
0.00023242
-4.54416e-06
-0.000169769
2.90585e-05
0.000468144
-0.00038543
-0.000111773
-0.000139789
0.000634816
0.000144786
-7.6452e-05
5.72019e-05
-0.000124629
0.000143879
-0.000207064
-0.000508943
0.000671258
4.47495e-05
-0.000137745
1.39295e-05
0.000102459
2.1356e-05
6.94183e-05
-2.21756e-05
-6.11534e-05
1.39107e-05
0.000140722
-5.10523e-05
-0.000114798
2.51279e-05
0.000136547
-5.25279e-05
-0.000108639
2.46195e-05
-7.46432e-05
2.07115e-05
6.81314e-05
-1.41997e-05
-0.000140928
5.11177e-05
0.00011329
-2.348e-05
-0.000162229
5.85937e-05
0.000130524
-2.68882e-05
2.99246e-05
0.000104255
-7.3028e-05
-6.11515e-05
-0.00012091
-3.82167e-05
4.71842e-05
0.000111943
-0.000256973
0.000319884
-0.000240735
0.000177824
-2.0246e-05
-2.17243e-05
4.19705e-05
2.13987e-05
-1.76031e-05
6.03021e-06
-9.82576e-06
3.52742e-06
1.45849e-05
3.02689e-05
-4.83812e-05
-0.000285695
0.000196585
0.000348802
-0.000259692
-9.53243e-06
-1.82147e-05
-6.30761e-06
0.000418526
-0.000768778
0.000350252
-0.000189512
0.000947156
-0.000886605
0.000128962
-9.70708e-05
0.000138306
6.05077e-05
-0.000101743
-6.90986e-05
0.000212199
6.5394e-05
-0.000208495
0.000718647
-0.000737654
0.000167229
-0.000525298
-0.000220191
0.000298869
0.00044662
3.32572e-05
-0.000115182
-9.66231e-05
0.000178548
0.000188773
0.000654746
-0.000843519
0.000108259
-8.7453e-05
-0.000117295
9.64894e-05
2.96462e-06
0.00016027
-0.000163235
7.74534e-05
-6.70727e-05
-5.91717e-05
4.8791e-05
-7.31099e-05
7.43085e-05
3.70024e-05
-5.38643e-05
-0.000268301
3.51606e-05
0.000287005
-0.000162595
0.000159874
0.000102315
-9.95934e-05
0.000270369
-0.000226453
0.000281214
-0.00032513
0.000358035
-0.000287165
0.00030992
-0.00038079
0.00015269
0.000457001
-0.000219421
-0.00039027
-1.49388e-05
2.11705e-05
4.85175e-05
-5.47492e-05
0.000814225
-0.000928187
0.000113962
-0.000198435
-0.000215671
8.45477e-05
0.000329559
-0.00101118
-0.000343505
0.00135468
0.000251726
-0.000232223
-1.9503e-05
-0.000139257
0.000148634
-9.37671e-06
-0.000619718
0.00055816
-8.30569e-05
0.000102781
0.000101308
-0.000152314
-5.17751e-05
9.28982e-05
-1.43365e-05
-8.70727e-05
0.000356865
-0.00011662
0.000250738
-0.000490983
0.000808832
0.00032534
-0.00032227
-0.000811903
0.000319573
0.000803894
-0.000314636
9.2306e-06
-0.000152183
-9.257e-05
-1.92015e-05
8.86298e-05
2.31417e-05
7.6855e-06
-5.54047e-05
-2.01877e-05
6.79069e-05
0.000821035
0.000338971
-0.000834667
-0.000199834
0.000170484
2.93498e-05
0.000188133
0.000492449
-0.000783657
-0.000220345
0.000511554
0.000289241
-0.000790927
0.000786517
-0.000284831
-0.000832771
0.000391452
-0.000405847
0.000847165
-7.89772e-07
1.65632e-06
6.48046e-06
-7.34699e-06
6.3384e-07
1.69779e-05
-1.53543e-05
-2.25757e-06
9.84458e-05
-0.000168974
-7.26928e-05
0.000143221
6.01661e-06
8.81998e-05
-0.000143554
4.93376e-05
0.00044577
0.000108723
-0.000554493
-0.000158194
-0.000106933
0.000265127
-0.000605919
0.000448602
0.000231062
-7.37441e-05
0.000174899
3.26471e-05
-0.000207546
0.000485308
-0.000275078
-0.000373303
0.000163074
-5.68341e-05
3.85752e-06
4.63488e-05
6.62784e-06
7.71683e-05
-0.000141436
-6.34734e-05
0.000127741
-0.000184961
-0.000234479
0.000304264
0.000115176
-6.26952e-06
0.000117008
-1.42675e-05
-9.64706e-05
1.577e-05
0.000437331
-5.12335e-05
-0.000401867
-8.6995e-05
5.29912e-05
4.37627e-05
-9.75891e-06
0.000101424
0.000136436
-0.000141094
-9.67658e-05
-0.000120625
0.000180161
8.17974e-05
-0.000141333
1.21482e-05
-1.70774e-06
-0.000250546
-0.000218235
0.000220969
-0.000325778
0.000323043
0.000172688
-7.2044e-05
-0.000516535
0.000415892
-6.84168e-05
-0.000119944
0.000188361
-8.38994e-05
-5.10137e-05
7.46171e-05
6.02959e-05
0.000141394
-6.07775e-05
-0.000137749
5.71331e-05
-0.000179792
9.18227e-05
0.00045584
-0.000367871
-0.00063024
0.000301123
-0.000204143
-0.000238226
3.94174e-05
-5.15553e-05
-0.000457972
0.000146653
-0.000221014
0.000532333
-3.47042e-05
2.64217e-05
8.8499e-05
-8.02166e-05
1.8694e-05
2.62812e-05
-4.49809e-05
0.000333472
0.000807134
-0.000338505
3.15875e-05
0.000335976
6.13409e-05
-6.24534e-05
0.000142306
-0.000141194
-0.000199236
0.000120887
0.000173711
-9.53625e-05
-0.000122764
9.38154e-05
-2.21949e-05
5.11434e-05
-0.000336721
0.000375773
-0.000276515
0.000237463
-6.3406e-05
0.000280526
8.72501e-05
-0.00030437
-9.9048e-05
-0.000357232
0.000266338
0.000189943
-1.79487e-05
1.57279e-05
2.54834e-06
-3.27529e-07
8.25928e-05
-9.87624e-05
-0.000259252
0.000275421
9.14981e-05
-2.22793e-05
1.39438e-05
-8.31626e-05
8.8388e-05
-3.21918e-05
3.90766e-06
-6.01039e-05
-0.000728502
0.000764924
-0.0003191
0.000282679
-6.83213e-05
-0.000331026
0.000335942
6.77021e-05
1.29899e-05
-7.20214e-05
5.34342e-05
-6.16932e-05
-0.000290836
0.000299095
-4.0045e-05
3.26957e-05
0.000195483
0.000813067
0.000359633
-0.000833729
-3.04953e-05
1.62619e-05
4.59582e-05
-3.17247e-05
-0.00012654
0.000109789
0.000100513
-8.37621e-05
-7.40691e-05
2.16946e-05
-3.19069e-05
8.42814e-05
0.00023778
7.17489e-05
-0.000256095
0.000301397
0.000791737
-4.01032e-05
2.73228e-05
2.48815e-05
-1.21011e-05
-7.92512e-05
3.2329e-05
2.66691e-05
2.02531e-05
-0.000105835
5.54499e-05
6.28643e-05
-1.24796e-05
1.30349e-05
0.000275823
-0.000245192
-4.36657e-05
2.45669e-05
0.000228715
-0.000196634
-5.66478e-05
7.65291e-05
-2.23272e-05
7.62407e-05
6.89289e-06
-0.000449447
0.000366313
-0.000605015
0.000613643
-8.62797e-06
0.000161362
8.36704e-06
-1.06197e-05
-0.00015911
0.000137767
1.17396e-05
-1.64718e-05
-0.000133035
-0.000355278
-0.00140798
0.00131984
0.000443417
-1.9015e-05
0.000341292
-0.000303805
-1.84721e-05
0.000105029
4.68023e-05
-4.38084e-05
-0.000108023
-1.7058e-05
0.000337418
-0.000300435
-1.9925e-05
6.16889e-05
1.87892e-05
-0.000443857
0.000363379
-0.000116721
-1.56161e-06
0.000649345
-0.000531062
-0.000141377
-9.10905e-06
2.7724e-05
-0.000316742
-0.000131438
0.000434108
1.40723e-05
-0.00011221
-0.000213659
0.000245227
8.06422e-05
8.58993e-05
-0.000122789
-0.000100856
1.45647e-05
4.24113e-05
-0.000250217
0.000193241
0.000125403
-0.000101075
-0.000566012
0.000541684
1.66551e-05
-1.93739e-05
0.000271632
-0.000268913
-3.62234e-05
3.7657e-05
-7.45498e-05
-0.000105233
5.24574e-05
-0.000327926
-9.59041e-05
7.7779e-05
-4.38484e-05
6.19735e-05
0.000125389
9.20598e-05
-0.000109159
-0.00010829
-0.000135179
0.000185488
-1.43487e-05
-3.59606e-05
-0.000117994
0.000157976
-3.98609e-05
-1.21182e-07
0.000582478
0.000156075
-9.53819e-05
-0.000643171
0.00057607
8.22012e-05
-4.7984e-05
-0.000610287
0.000533315
-0.000511951
0.000187019
-0.000208383
-0.000193694
0.000257475
9.09448e-06
-7.2875e-05
3.73013e-05
-0.000218006
-4.80324e-05
0.000228737
-0.000220801
0.000290538
-5.93348e-06
-6.38033e-05
0.000790353
0.000356186
0.000346792
-8.51236e-05
0.000203454
-0.000465123
-0.000243206
-0.000302532
0.000309715
0.000236024
-0.000303273
-0.000390818
0.000201126
0.000492966
0.00011095
-4.27953e-05
0.000373553
-0.000441707
-5.78456e-05
4.28084e-05
6.58826e-05
-5.08454e-05
-8.01067e-05
-0.00011835
9.79413e-05
0.000100516
-4.80099e-05
-8.60019e-05
4.1884e-05
9.21277e-05
1.78755e-05
-0.000207039
0.00019213
0.000383518
-6.56795e-05
9.20143e-05
-0.000409853
-4.83525e-05
5.80655e-05
8.61576e-05
-9.58706e-05
0.000106207
-0.000113263
1.57731e-05
-8.71713e-06
0.000394699
0.00027464
-0.00066934
7.88898e-05
-1.56011e-05
-6.32887e-05
-0.000127031
-7.12111e-05
7.7073e-05
0.000121169
1.58727e-05
0.000385174
3.09779e-05
-0.000432025
1.87396e-05
0.000319973
0.000788557
-0.000183635
1.60897e-05
0.000517002
-0.000349457
-5.47623e-06
-1.09698e-05
1.56527e-05
-0.000386819
6.51329e-05
2.98561e-05
0.00029183
-0.000229829
-6.88582e-05
0.000176224
0.000122463
-0.000820857
0.000790368
0.000390121
-0.000153951
3.96262e-05
-3.82438e-05
0.000152568
2.4173e-05
-2.56109e-05
2.72351e-05
-2.57971e-05
0.000136851
2.29752e-05
-4.82161e-05
-0.00011161
-3.02996e-05
5.90907e-05
-1.3892e-05
-1.48991e-05
-9.14602e-07
-3.40239e-05
1.33595e-05
2.15791e-05
-0.000323637
8.88036e-05
0.000387524
-0.000180807
3.82479e-05
0.000171525
-2.89661e-05
5.96647e-05
-9.10027e-05
9.26774e-05
0.00031554
-0.000327079
1.1539e-05
-7.27451e-05
5.39274e-05
0.000117692
-9.88739e-05
-0.000129774
-4.91799e-05
6.55084e-05
0.000113446
1.99841e-05
-0.000573593
-5.23112e-05
-0.000247619
0.000238633
0.000772262
-5.77727e-05
8.73849e-05
7.84612e-05
-0.000108073
0.000323428
-0.000326791
9.19744e-05
-8.86118e-05
7.46355e-05
0.000100033
-7.88185e-05
-9.58502e-05
3.34739e-05
-4.51143e-05
9.40392e-05
-8.23988e-05
0.000947975
0.000409582
-0.00108465
-0.000272904
0.000273407
-0.000228945
-0.000190171
0.00014571
-0.000399387
-0.000471094
0.000928546
-5.80658e-05
4.21106e-05
4.56861e-05
3.54374e-05
-0.000123234
-0.000291931
-5.16594e-05
0.000311749
3.18415e-05
-0.000169991
4.22324e-05
-4.38361e-05
0.000171595
-0.000304319
3.74219e-05
0.000277042
-1.01441e-05
-0.000329373
-0.000848544
0.000344188
-0.00033268
-0.000731806
0.000752339
0.000312146
-7.45311e-05
-4.04515e-06
1.56219e-05
6.29543e-05
-0.000317211
3.98869e-05
0.000290539
-1.32152e-05
4.48355e-05
-0.000199076
-4.73735e-05
0.000201614
6.89871e-05
-6.56824e-05
-3.2881e-05
2.95763e-05
0.000396613
-0.00032509
6.27719e-05
-0.000134295
-0.00021497
0.00105479
0.00012551
-0.000134034
-2.09218e-05
2.94453e-05
-0.000192821
-6.74715e-05
0.000226189
3.41039e-05
0.000281215
-9.83752e-05
0.00011189
-0.00029473
1.61118e-05
-5.22537e-05
0.00018129
-0.000145148
-0.000856402
0.000492464
-0.000255781
8.67969e-06
-9.43126e-06
6.42724e-05
-6.35208e-05
-7.91279e-05
0.000446654
2.69348e-05
-0.000394461
0.000152247
-0.000364292
0.000309471
-9.74253e-05
0.000367829
-0.000116252
-0.000316161
6.45844e-05
0.000325405
-0.000163745
0.000181979
-0.000343639
3.67719e-05
-0.000275838
-3.66733e-05
0.000275739
-0.000349425
0.000320172
0.000469718
-0.000440464
-6.68256e-05
-0.000187211
8.56235e-05
0.000168413
-0.000125056
-0.000419884
0.000324918
0.000220022
0.000179525
0.000223694
-0.000113164
-0.000290055
3.26092e-05
-8.64294e-05
-7.69494e-05
6.30224e-05
0.000100356
4.67067e-06
-0.00020256
0.000222454
-4.21091e-06
-0.00025145
0.000268694
-0.000282196
0.000430221
-0.000484746
-8.87941e-05
5.14183e-06
-8.2426e-05
7.30375e-05
7.2527e-05
-6.31385e-05
-0.000105426
0.000131212
-9.88355e-05
7.30488e-05
0.000160731
-7.93143e-05
8.23123e-05
-0.000163729
-0.000462471
0.000372383
-0.000136314
0.000226402
4.92733e-05
-4.14274e-05
-1.57244e-07
-0.000319143
-0.000844897
0.000782705
-0.000768966
-0.000336009
0.000243691
8.82565e-05
-1.12681e-05
-0.000320679
0.000216795
0.000102418
-3.71319e-05
-0.000282081
0.000304173
0.000439842
-0.000323217
-0.000420799
4.03645e-06
-0.000287567
-2.97764e-05
0.000313307
9.12681e-05
0.000722956
0.000118688
-0.000100274
7.83013e-05
-9.67146e-05
0.000322862
-0.000739921
-0.000359463
0.000776522
9.64094e-05
-2.18799e-06
-9.19943e-05
-2.22707e-06
-0.000121295
4.06539e-05
0.000131308
-5.06668e-05
2.70214e-06
0.000111191
-9.94554e-05
-1.44375e-05
-0.00012405
0.00018673
-0.000201982
0.000139301
-8.01642e-05
0.000415982
-0.000378439
4.26209e-05
0.000777646
6.28059e-05
4.55677e-05
-5.45674e-05
-5.38061e-05
0.000584802
-0.000166431
5.81993e-05
0.000828851
-0.000958586
7.15359e-05
-0.000204745
0.000197281
6.37889e-05
-5.63249e-05
0.000142883
-0.000101911
-0.000123279
8.23082e-05
0.000501786
-0.00027168
0.00028486
-0.000514966
-0.00117581
0.000113545
-4.13065e-05
3.59685e-05
-0.000108207
0.000506305
-0.000462324
-0.000123108
9.96827e-05
-0.000360086
2.89175e-06
-0.000148278
0.000102318
-0.000109137
0.000155096
0.000280579
-9.43117e-05
-0.000186267
-0.000126383
-0.000265232
0.000164998
0.000226617
-0.000213866
0.000223891
-2.73793e-05
1.73539e-05
0.0001002
-6.11637e-05
-6.96561e-05
3.06199e-05
6.32466e-05
-6.26271e-05
7.88923e-05
-7.95117e-05
-0.000450138
0.000442023
0.000394142
-0.000386026
0.000166143
0.000140932
-0.000240615
-6.64597e-05
3.49872e-05
-0.000241952
0.000244266
-0.000421801
0.000290806
0.000504468
-0.000373473
2.22746e-06
-0.000199439
-0.000336803
1.34692e-05
-6.98063e-05
8.36161e-05
-2.03661e-05
6.55629e-06
-4.32149e-05
3.7883e-05
-4.33782e-06
9.66973e-06
-7.89056e-05
9.67163e-05
-2.63387e-05
8.52795e-06
-7.90571e-05
9.32155e-05
-2.45808e-05
1.04224e-05
-0.000350244
1.59756e-05
-4.66334e-05
-2.98498e-05
4.22329e-05
3.42504e-05
-0.000202666
0.000180215
0.000189959
-0.000167507
-0.000250469
-0.000362465
0.000413491
0.000199443
6.87087e-05
-0.000557323
0.000699587
-0.000210973
3.82117e-05
-1.18129e-05
5.7621e-05
-8.40197e-05
2.74174e-05
3.21004e-05
-9.85897e-06
8.4853e-07
2.99617e-05
9.17465e-05
-0.000122557
9.72344e-05
-0.000152786
0.000246114
-0.00026711
0.000121412
-0.000100416
-7.556e-05
-2.62764e-05
1.89549e-05
-8.84312e-06
-0.000104378
-3.05887e-05
7.56342e-05
-7.53461e-05
0.000314221
-0.000319646
-0.000763543
0.00025254
-0.000264283
-0.000198233
0.000209976
-1.13104e-05
0.000119524
-3.18801e-05
-7.63337e-05
3.58634e-05
-0.000361071
0.000314153
1.10547e-05
-0.000816827
0.000198268
-4.73213e-05
0.000639537
-0.000790483
0.000503451
3.27928e-06
5.15895e-05
-0.00055832
-5.03518e-05
5.07087e-05
-7.15287e-05
7.11718e-05
-0.000771228
-0.000245859
0.000292996
0.000724091
4.61453e-05
-7.05139e-05
9.88747e-05
-7.45061e-05
-6.95591e-05
-9.95408e-05
0.000109521
5.95792e-05
-2.94662e-05
2.96233e-05
-0.000204901
8.05304e-05
7.33776e-05
-8.87729e-05
-6.5135e-05
0.000134917
-4.46704e-05
9.95509e-06
-0.000293186
0.000741439
0.000329394
0.00160925
-0.00158589
-2.33616e-05
-0.000692077
-0.000383856
-0.000344186
0.000379146
-0.000302401
0.000267441
0.000722102
-0.000586308
-0.000244793
0.000108998
0.000147852
-3.1289e-05
-0.000136574
2.00108e-05
0.000236504
-0.000187982
-0.000230635
0.000182113
0.000115689
-0.000531414
0.000415725
0.000358535
0.000187412
-0.000428235
-0.000117712
7.40798e-05
-4.64157e-05
5.4466e-05
-8.21301e-05
-0.000729753
0.000511216
0.000304673
-8.61364e-05
-0.000157561
-0.000103004
0.000129914
0.000130651
-7.36604e-05
-5.91675e-05
7.15134e-05
6.13145e-05
-0.000601465
0.000218969
0.000571269
4.58012e-05
0.000224128
-7.78628e-05
-0.000192066
-0.000221488
-0.000121844
0.000101504
0.000241828
-0.000133061
9.65977e-05
-2.32001e-06
3.87835e-05
-0.00023158
0.000179392
-3.35804e-05
8.57688e-05
0.000263596
-2.5908e-05
3.43269e-05
0.00020884
1.39647e-05
-0.000191964
-3.0841e-05
0.000258714
1.01593e-05
-0.000241728
-2.71461e-05
-0.00021345
0.000174265
0.00032591
-0.000286726
-0.000258561
-0.000538195
-8.04939e-05
0.000908937
-0.000828443
-0.00027444
0.00025021
-0.000619211
0.000643441
-5.90022e-05
-0.000163625
9.87998e-05
0.000123828
0.000170155
-0.000212868
-2.4113e-05
2.27154e-05
-6.03318e-05
-0.000294533
0.00033215
0.000229581
3.10802e-05
-0.000258294
1.58525e-05
0.000242442
-7.91637e-05
0.000217064
-0.000191768
-4.83376e-05
2.94743e-05
3.52039e-05
-1.63405e-05
-5.70746e-05
4.61899e-05
4.57817e-05
-3.4897e-05
9.85918e-05
-7.52599e-05
-0.000163434
0.000140102
-0.000689027
0.000725764
-3.67372e-05
4.4661e-05
-7.60229e-05
8.56973e-05
-5.43354e-05
-0.000104442
9.88703e-05
-2.63426e-05
3.19142e-05
-0.000301338
0.000313777
-0.000857337
0.000104459
-0.000109754
0.000121024
-0.000115729
0.000159762
-2.26164e-05
3.00541e-05
-0.000378172
1.13152e-05
0.000114285
-0.000110906
0.000122015
1.14247e-05
-0.00013691
0.000125485
4.80021e-06
-0.000127298
0.000122498
-0.000275859
3.88322e-05
-0.000392717
3.64197e-06
0.000115137
-1.23299e-05
-0.000152365
4.95583e-05
-0.000660075
-0.000128037
0.000788112
0.000112025
-0.000106297
-5.72839e-06
0.000351517
-0.000370744
0.000535583
-0.000516356
-0.000198932
0.000306836
0.000364693
0.000165251
-2.83287e-05
-0.000136922
0.00014325
-2.06485e-05
-0.000122601
-0.000279278
-0.000323603
0.000410953
0.000191927
0.000305964
4.16507e-05
-0.000197595
-0.00015002
1.42387e-05
1.99918e-05
-0.000114413
8.01822e-05
-0.00033538
-2.25003e-05
7.19374e-05
-7.86037e-05
-9.62632e-05
0.000102929
7.1195e-05
6.36996e-05
-5.43631e-05
-0.000166248
-0.000116417
0.000130816
0.00015185
-0.000385148
-0.00032215
0.000441818
0.00026548
0.000418991
-0.000229921
-0.000388002
-0.000133139
0.000156973
6.82282e-05
0.000189735
0.000159891
-6.91598e-05
-0.000280466
0.000677265
-2.25192e-05
-0.000102398
4.38653e-06
9.43265e-05
3.6852e-06
-3.31707e-05
4.14542e-05
8.0379e-05
-8.86625e-05
8.66571e-05
1.04932e-05
-9.71504e-05
9.37225e-05
8.86027e-06
-0.000102583
8.83019e-05
2.18745e-06
-9.04893e-05
8.28192e-05
7.92491e-06
-9.07441e-05
-0.000343069
-0.000118653
0.00028911
0.000172612
2.92971e-05
0.0008858
-0.000915097
-8.02072e-05
-0.000314905
0.000106867
0.000288246
0.00029595
-0.000224317
-0.000499692
0.000428059
-0.000270648
0.000199944
-0.000223702
0.000294406
-0.000650054
0.000456621
5.65199e-05
0.000136913
-2.87548e-05
7.70158e-05
-6.99853e-05
2.17242e-05
0.000490106
-0.00101734
-0.000379392
0.000906623
0.000840303
0.000144733
-0.000804323
-0.000180712
-0.000102342
-6.01402e-05
7.01145e-05
9.23682e-05
0.000302623
-0.000438909
-0.000145909
0.000177918
-8.01812e-07
-9.20876e-05
-0.000194459
0.000251644
3.49026e-05
-4.36034e-05
0.000257407
-4.73276e-05
-0.000166475
-9.76608e-05
5.81105e-05
-2.16117e-05
4.25031e-05
-3.64457e-05
0.000188226
-0.000194283
-4.84303e-05
9.21686e-05
6.98088e-05
0.000320239
6.99645e-05
-0.000360149
0.000255343
0.000767639
-0.000236467
2.01613e-05
-2.92403e-05
-2.95819e-05
3.86609e-05
-5.1342e-05
8.60769e-05
-7.94043e-05
0.000356169
8.40036e-05
-0.00040134
-0.000206077
2.18545e-05
0.000184223
-0.000265749
0.000268862
-0.000273761
-1.22636e-05
0.000437495
-0.000427155
1.92351e-06
2.93435e-05
-0.000362495
0.000369015
-0.000122189
-7.27215e-05
0.000151887
4.30234e-05
7.35388e-05
-0.000113727
0.000148447
4.00202e-05
0.000437615