/*--------------------------------*- C++ -*----------------------------------*\
| =========                 |                                                 |
| \\      /  F ield         | OpenFOAM Extend Project: Open source CFD        |
|  \\    /   O peration     | Version:  1.6-ext                               |
|   \\  /    A nd           | Web:      www.extend-project.de                 |
|    \\/     M anipulation  |                                                 |
\*---------------------------------------------------------------------------*/
FoamFile
{
    version     2.0;
    format      ascii;
    class       volScalarField;
    location    "2000";
    object      T;
}
// * * * * * * * * * * * * * * * * * * * * * * * * * * * * * * * * * * * * * //

dimensions      [0 0 0 1 0 0 0];

internalField   nonuniform List<scalar> 
26307
(
285.871
289.787
287.617
294.802
288.45
288.307
292.214
286.377
293.488
286.062
286.785
287.46
289.642
287.788
303.2
296.1
286.54
294.074
289.34
286.387
286.513
285.778
293.328
295.413
293.296
286.405
286.601
298.978
288.438
286.485
303.947
286.049
295.999
287.363
287.427
285.941
285.777
290.254
291.285
286.107
294.14
293.565
286.446
298.09
287.039
287.386
287.275
285.63
286.54
293.167
293.986
290.042
287.091
288.242
288.021
286.118
288.998
287.585
285.527
287.451
287.461
296.425
294.626
295.47
286.387
297.101
285.67
292.557
287.365
287.143
286.357
290.939
285.92
293.707
292.401
285.834
287.771
287.264
286.615
291.663
300.876
285.757
301.252
286.645
285.724
285.563
287.678
286.6
285.918
292.612
285.737
297.688
290.55
292.999
289.951
286.29
291.379
294.668
286.716
287.112
297.183
293.042
285.688
285.852
286.87
287.282
289.323
287.095
285.706
286.198
286.145
298.074
287.824
286.198
292.534
298.173
297.735
286.627
285.879
285.883
285.979
288.075
289.381
291.194
290.936
290.254
286.572
287.216
296.156
292.275
291.664
292.936
286.132
286.39
287.194
286.192
285.757
285.957
286.322
289.077
285.894
287.234
286.668
296.546
285.716
286.684
285.862
288.703
294.978
287.614
286.09
287.121
288.262
285.97
286.095
286.638
291.071
286.97
287.053
299.838
286.651
286.249
286.199
286.161
285.713
286.229
286.422
286.249
287.767
286.667
286.144
286.018
285.808
286.181
293.533
290.309
291.159
285.88
286.053
286.179
286.345
287.011
286.042
292.161
288.392
286.204
287.817
299.02
290.286
288.104
288.174
292.518
293.755
285.868
287.462
287.672
297.849
286.34
286.599
285.786
305.096
285.781
286.387
289.764
290.136
286.029
291.946
297.416
286.593
298.09
286.151
286.321
286.1
290.598
288.988
285.835
287.23
286.578
286.067
292.754
286.267
291.392
297.998
286.608
295.739
286.123
294.922
286.534
286.275
290.497
286.536
286.472
296.898
287.814
286.652
288.78
286.406
291.069
296.372
286.112
296.253
306.564
293.895
286.456
286.294
287.097
286.304
285.774
286.292
286.591
285.893
285.947
292.818
291.674
290.339
292.661
290.232
289.53
295.537
286.496
285.669
308.49
292.891
291.643
285.98
293.594
286.435
285.531
286.485
287.27
285.65
285.979
286.19
286.981
286.263
302.837
288.073
290.803
292.88
288.005
286.885
286.954
286.382
293.182
286.904
286.749
286.314
293.726
287.94
285.825
287.581
295.717
285.906
285.397
285.461
286.548
288.567
288.995
285.328
295.763
286.563
286.602
285.661
285.345
293.234
291.84
290.587
287.815
287.33
286.989
285.837
295.321
285.79
288.996
290.614
290.825
295.664
286.608
286.736
288.043
287.806
286.623
286.58
286.776
287.605
295.087
296.738
286.265
285.677
286.288
285.911
299.16
284.566
285.373
286.288
291.322
285.824
287.436
286
286.359
292.741
295.201
285.895
286.39
288.639
285.659
286.4
286.76
286.637
286.549
285.315
291.058
294.681
292.487
286.607
285.524
290.359
294.81
295.936
286.809
286.743
286.112
286.505
287.107
289.677
290.314
284.34
286.509
289.667
286.697
286.721
286.491
287.573
286.786
286.644
285.948
285.92
285.811
286.269
290.992
286.215
286.571
292.419
296.402
295.374
286.077
285.813
285.952
286.546
285.736
286.385
285.338
287.898
287.442
286.345
285.931
298.912
288.866
289.737
300.089
287.627
297.253
293.37
286.41
288.723
286.625
286.662
281.305
285.423
286.997
293.095
287.779
285.783
285.355
287.903
288.927
294.843
295.9
302.571
286.345
293.472
290.455
288.254
294.218
286.194
285.825
286.948
287.6
285.911
297.084
286.388
284.017
286.393
285.636
288.442
286.194
290.702
286.607
285.304
285.362
291.326
286.752
291.085
287.765
285.958
287.541
287.816
285.763
289.645
286.386
285.798
292.179
286.296
287.528
285.702
286.269
286.277
286.066
288.985
290.321
287.317
297.489
291.821
286.866
286.917
285.985
291.833
294.976
290.784
291.928
285.711
288.899
285.292
285.514
286.638
286.543
287.649
287.123
286.932
296.691
285.744
289.844
290.736
286.698
287.737
286.829
285.369
292.281
285.852
286.031
286.243
286.694
286.516
286.877
290.571
286.317
285.591
285.861
292.949
294.827
285.822
286.254
286.216
296.864
285.888
286.075
285.71
286.262
286.249
286.605
292.368
294.961
291.259
292.069
286.759
291.318
290.371
286.742
286.365
288.234
305.898
288.39
286.721
293.328
289.976
290.704
295.915
285.436
286.211
290.228
286.476
285.337
286.181
286.107
292.651
285.523
294.157
290.185
286.244
296.902
286.22
285.405
285.829
285.658
287.227
285.891
298.642
286.522
287.181
286.327
294.729
285.719
288.248
290.342
286.965
286.208
286.364
287.311
287.39
296.41
287.053
287.09
286.193
286.363
286.047
285.846
300.863
289.626
286.243
286.258
295.565
294.153
291.033
289.895
296.273
287.353
296.886
287.317
285.267
291.054
286.225
286.607
291.872
287.389
289.286
285.474
286.771
286.543
286.705
289.868
286.496
286.404
289.342
287.149
287.552
285.993
286.401
286.284
296.156
297.026
286.235
285.662
286.459
293.725
285.83
287.011
294.038
303.33
293.946
294.88
297.981
295.135
286.877
286.144
286.26
286.273
286.296
285.919
286.177
287.678
285.446
285.456
291.965
286.011
286.231
285.703
286.18
286.213
293.912
290.781
286.751
285.721
294.346
286.199
286.853
301.5
285.92
286.839
286.609
291.17
286.177
286.107
285.733
287.662
286.321
285.288
286.191
286.334
286.197
286.516
285.709
286.298
286.532
291.599
286.401
286.199
285.891
296.897
286.199
287.057
285.707
290.111
285.744
292.384
286.202
286.185
286.519
292.977
297.324
285.896
295.257
291.072
297.732
296.082
287.957
287.041
287.948
286.454
288.607
286.279
286.775
286.245
287.575
286.696
288.756
289.538
286.988
286.392
285.316
286.145
285.894
295.792
285.583
287.165
286.868
291.296
290.314
284.797
286.692
294.459
285.893
294.008
286.263
286.609
298.075
294.419
286.738
286.17
285.569
290.042
286.284
286.599
286.238
293.516
286.233
286.368
287.612
285.305
286.203
290.04
286.122
287.393
286.535
286.449
286.501
296.714
288.058
286.291
286.205
293.084
286.601
287.788
286.375
285.368
285.901
287.253
286.509
286.083
286.463
292.241
285.629
296.121
286.274
286.394
286.618
286.219
286.524
288.868
289.645
288.848
283.803
285.836
286.168
286.286
285.933
288.695
289.681
286.793
286.243
293.796
286.202
285.714
299.675
289.341
287.182
286.967
286.292
287.001
286.003
285.833
286.202
286.281
289.909
289.042
291.563
286.896
293.566
286.045
286.903
286.076
297.093
287.672
292.082
287.803
295.331
294.982
299.725
295.507
286.594
286.674
287.665
290.626
286.236
291.178
286.202
291.804
286.688
286.237
286.827
286.94
285.806
284.636
286.48
286.125
286.229
298.431
286.213
294.889
287.857
286.298
287.235
293.57
285.636
284.512
286.586
286.517
286.264
285.701
286.431
292.607
286.691
286.524
294.423
290.024
288.892
285.83
287.678
295.861
296.282
288.111
288.047
286.143
288.147
286.795
286.411
286.374
296.173
286.414
286.269
293.715
289.836
287.053
285.932
291.017
286.327
286.02
286.105
287.33
286.541
286.685
287.277
286.206
286.27
285.888
287.589
285.815
285.846
292.528
292.886
287.274
287.32
286.116
285.807
297.319
290.8
285.84
286.311
291.237
285.252
293.499
293.483
296.431
292.369
291.099
292.091
291.691
292.499
286.807
285.969
285.681
296.444
287.705
292.153
288.945
285.962
285.905
286.315
287.674
288.049
290.888
289.145
297.24
286.348
288.671
290.002
286.06
286.003
286.724
285.78
287.02
286.114
286.223
290.386
285.741
286.268
287.825
293.014
286.943
286.254
285.352
293.822
288.564
286.092
291.418
287.759
292.837
286.971
287.132
285.814
286.228
290.375
285.902
288.381
287.927
286.399
286.574
286.008
293.237
286.137
287.203
287.607
291.174
286.807
286.27
285.254
286.305
289.942
291.28
288.016
286.029
289.904
285.737
287.374
286.708
296.31
295.68
286.79
293.561
287.533
286.2
286.312
291.493
285.366
286.626
285.466
285.782
292.226
286.192
287.022
285.563
287.21
289.401
286.129
285.691
286.093
289.514
287.732
287.122
286.032
289.407
287.346
290.567
286.325
286.187
288.036
289.236
289.868
292.016
291.517
292.817
290.219
285.773
286.439
286.285
286.138
287.205
299.207
298.089
285.849
287.768
287.878
287.024
287.73
286.092
294.273
285.768
285.79
286.363
286.321
285.227
286.387
285.908
287.411
293.12
286.257
297.638
290.776
285.789
297.905
287.206
287.103
286.898
286.942
292.419
306.221
293.415
285.861
301.184
289.074
288.538
290.063
288.64
286.266
286.106
286.138
296.541
298.902
286.74
286.332
287.075
286.222
288.96
286.774
285.853
296.687
295.044
286.852
295.178
286.839
288.249
286.294
286.164
293.126
287.178
287.703
286.579
287.62
286.538
286.049
292.611
287.917
293.822
287.925
286.637
285.957
286.257
286.183
286.265
286.2
285.75
297.173
285.659
298.923
286.42
292.494
285.896
292.942
285.814
286.171
286.587
286.556
286.174
285.756
286.775
290.307
286.549
285.392
296.726
290.288
287.222
286.09
288.095
293.045
293.113
286.279
286.862
288.863
302.317
292.064
292.646
292.15
286.294
286.334
292.558
286.795
289.332
286.331
287.359
292.136
285.68
286.221
286.267
286.108
290.863
285.813
288.696
287.111
286.033
287.489
288.091
286.78
287.251
286.708
287.502
285.783
286.155
286.389
286.436
287.006
287.994
288.97
290.128
286.47
289.27
286.127
288.401
286.619
286.75
288.339
293.485
286.521
287.19
290.098
286.467
297.122
285.724
287.342
286.981
292.231
287.67
287.656
286.169
293.547
286.437
286.25
296.626
286.629
286.722
286.962
286.436
294.443
287.025
286.671
293.476
286.264
286.852
288.134
287.228
286.223
287.307
287.855
290.235
286.863
286.243
288.028
289.824
286.213
286.733
285.667
286.182
286.053
286.828
287.645
285.705
297.876
293.365
285.976
286.687
295.045
290.884
286.568
284.004
288.329
286.322
286.18
286.462
286.248
285.901
286.798
286.89
286.933
285.968
286.743
287.589
286.48
292.766
298.169
288.062
286.167
286.456
286.766
294.239
286.32
287.092
287.108
285.768
287.836
287.868
288.884
284.477
286.49
285.976
298.601
294.073
286.433
286.328
286.768
292.289
290.75
289.709
291.294
290.458
289.423
291.484
288.008
294.449
296.538
287.432
285.949
285.894
285.713
286.113
288.181
289.616
292.626
287.452
285.949
285.833
286.339
293.393
286.276
288.657
288.217
285.221
293.151
287.009
286.108
286.238
293.45
286.683
296.862
290.112
292.154
288.066
294.369
286.475
288.541
293.885
286.329
285.772
286.566
286.667
286.19
287.053
287.012
286.795
286.328
294.158
291.585
286.261
293.96
286.469
286.481
286.112
293.521
291.54
300.204
291.495
297.979
287.838
295.319
290.443
286.362
287.542
286.565
288.152
294.328
287.364
301.885
286.75
286.436
286.674
286.029
286.421
286.012
286.203
286.155
296.226
288.105
285.335
286.248
287.765
286.634
286.436
285.703
285.849
288.728
286.91
288.061
286.112
293.118
289.083
285.989
292.385
287.577
286.498
288.507
291.689
288.055
288.213
292.277
293.426
286.522
286.752
295.415
286.681
286.576
286.485
285.942
286.492
286.359
292.094
290.654
286.131
288.029
286.449
286.161
300.384
287.194
287.128
295.831
287.585
286.364
286.323
292.818
286.262
292.718
286.882
286.18
284.232
295.864
286.922
286.13
286.423
285.786
285.659
292.123
285.841
294.268
285.72
286.442
286.695
286.179
292.676
286.986
287.025
285.983
288.313
286.674
295.112
299.571
293.439
286.601
286.782
285.877
284.677
286.19
286.076
286.454
293.016
291.576
285.933
291.863
286.32
286.01
288.983
294.37
286.858
295.408
285.924
287.043
287.51
287.345
297.484
287.927
285.957
286.666
286.957
300.773
285.251
294.581
294.019
285.397
293.301
286.339
296.388
287.295
288.471
289.083
286.958
297.887
286.954
287.015
286.942
286.144
286.445
296.833
287.839
296.851
287.257
287.354
287.66
286.619
285.972
287.179
286.161
286.662
286.683
297.202
290.797
285.9
290.403
291.001
286.142
292.96
295.143
286.27
299.816
286.452
287.442
287.481
286.148
285.818
287.531
286.961
296.88
297.227
287.2
287.09
286.751
286.572
286.905
286.446
288.159
286.832
294.346
294.801
286.772
295.382
295.952
285.754
285.856
286.01
296.418
292.286
298.338
285.744
286.05
286.884
290.746
287.278
286.466
300.951
286.253
287.035
288.664
288.354
286.256
293.846
286.225
287.036
287.007
292.241
294.427
286.942
289.276
286.907
293.243
288.803
286.268
286.944
285.672
285.734
286.56
293.442
286.976
286.405
299.985
285.88
286.757
286.831
291.573
289.031
289.545
288.469
296.745
286.393
287.423
287.568
287.405
286.005
297.905
286.668
287.543
286.105
292.977
286.628
287.692
286.11
297.144
285.8
286.389
294.273
297.299
298.045
286.207
287.328
295.426
287.002
293.122
286.008
294.672
286.406
287.575
285.648
285.973
286.462
286.132
286.611
285.97
286.123
294.005
285.802
285.687
295.747
286.397
285.889
291.079
298.552
286.167
286.051
290.677
299.682
286.165
285.772
295.593
286.59
287.045
287.392
298.471
295.94
285.929
287.077
286.268
286.422
302.684
287.064
290.028
289.071
285.899
286.493
286.56
284.275
287.292
294.166
292.983
294.147
296.221
291.933
289.455
288.163
286.853
286.482
288.19
286.831
286.879
286.912
287.84
286.173
291.344
286.209
286.854
290.185
287.782
286.367
286.616
290.086
287.878
289.195
290.006
285.95
286.628
286.288
286.402
286.633
287.121
286.211
294.058
286.148
286.482
287.342
286.099
286.368
286.203
301.225
285.771
289.085
286.226
290.091
285.409
286.623
286.275
286.823
287.301
287.361
286.345
291.494
289.976
287.687
296.875
286.131
285.981
297.107
287.393
289.347
285.895
288.483
293.241
291.506
285.836
287.639
287.537
286.724
290.975
296.926
297.582
287.238
287.304
298.238
285.988
296.766
286.453
293.267
289.957
287.747
294.01
285.815
290.872
287.646
285.703
285.956
294.69
286.136
286.782
286.188
286.714
296.992
294.284
286.273
294.023
286.453
286.291
286.225
286.475
286.113
286.966
287.001
297.799
288.094
286.352
287.393
287.457
296.38
290.152
287.215
285.694
293.09
286.042
293.4
286.441
286.132
285.753
287.222
287.109
287.139
296.645
287.313
292.442
287.81
297.943
298.514
286.529
289.38
286.116
285.986
286.98
295.079
287.996
286.686
286.02
287.073
286.292
294.098
285.754
286.376
286.112
289.476
296.319
291.8
286.616
300.625
289.546
288.36
289.853
293.248
286.201
286.74
286.676
288.499
296.036
291.526
286.613
294.271
286.004
294.788
286.827
286.876
290.176
296.854
287.219
286.982
285.671
288.5
286.703
289.699
296.91
295.626
297.523
286.028
292.2
292.756
286.684
295.399
286.144
286.362
292.229
291.373
292.466
295.051
294.417
295.099
298.112
295.432
286.286
285.889
285.861
286.5
297.008
294.113
289.592
294.427
286.583
291.569
296.128
286.611
292.398
295.477
286.219
286.238
288.116
297.61
298.148
286.473
285.997
286.223
289.801
287.522
286.537
297.408
286.159
286.025
287.398
286.073
289.915
292.815
286.232
286.856
287.718
285.939
286.694
287.744
293.406
286.12
286.009
286.125
287.24
289.659
288.255
285.903
286.026
295.002
293.589
299.959
287.451
287.885
286.025
286.113
285.718
290.554
296.281
286.368
296.961
286.123
287.951
286.237
285.791
293.236
287.642
287.506
293.666
286.567
286.001
285.907
286.573
294.527
302.791
293.852
292.905
294.119
291.349
293.327
292.901
286.278
293.531
286.291
292.954
287.001
294.08
295.052
286.053
286.293
288.118
288.391
287.455
295.776
286.013
295.384
285.949
288.054
287.444
286.536
286.807
286.859
291.186
289.017
290.702
293.827
291.983
291.507
289.514
288.985
290.998
285.962
297.126
285.363
286.204
286.107
286.374
287.304
293.721
286.304
295.682
285.948
285.804
294.832
288.601
293.656
293.034
286.366
286.553
295.061
285.837
286.277
286.192
286.257
299.96
286.721
295.251
290.638
285.701
302.361
285.851
296.407
286.075
284.023
285.834
290.692
294.437
286.455
286.412
286.526
290.399
297.201
291.337
287.359
289.617
287.849
286.24
297.477
299.743
285.805
292.6
285.256
287.764
285.792
285.855
286.75
285.893
293.593
284.221
286.415
297.926
296.989
293.662
286.155
296.953
287.55
286.247
292.995
286.56
287.871
285.97
295.185
292.99
287.176
287.263
299.715
286.731
286.393
292.55
290.777
291.338
291.281
286.193
295.96
296.306
286.684
285.842
285.917
286.727
287.353
287.244
287.577
293.128
287.232
286.402
286.843
292.771
286.707
286.84
286.774
287.45
298.899
297.377
296.368
288.856
287.825
294.165
286.57
293.478
285.918
286.799
289.11
287.41
286.394
290.104
289.544
287.776
287.622
299.393
285.855
286.191
285.981
285.772
287.829
287.844
286.204
286.861
286.907
287.821
287.952
285.883
285.728
288.576
290.888
292.999
288.137
286.594
291.797
288.455
288.848
286.47
286.193
286.269
285.512
286.107
299.026
292.633
286.59
286.045
296.579
287.516
287.666
286.154
292.243
293.518
286.156
285.998
286.453
285.909
296.904
294.23
285.875
297.044
297.104
286.286
286.029
286.062
286.819
303.997
285.967
286.522
293.166
286.014
288.401
286.028
286.611
286.369
295.055
285.769
292.496
298.836
286.69
292.173
286.814
292.043
290.428
286.672
286.725
294.864
285.95
288.118
287.926
291.159
286.89
285.678
296.331
286.118
287.03
286.623
286.007
296.871
286.655
285.728
286.136
286.371
285.774
286.667
286.145
291.262
291.975
286.473
295.406
292.394
286.583
293.45
286.42
294.287
286.801
286.824
293.564
286.628
286.866
292.677
287.884
285.729
289.192
297.971
296.793
286.578
296.72
290.481
286.07
300.037
286.798
286.336
287.844
296.523
291.405
292.03
285.736
295.377
287.427
286.685
286.514
289.299
286.308
285.85
286.475
286.237
296.771
289.892
289.967
289.402
290.571
292.215
286.56
285.975
286.381
287.886
290.801
287.495
286.114
287.569
285.91
285.918
286.931
286.966
287.126
286.196
297.457
289.058
287.851
286.953
286.908
292.661
289.895
294.44
297.238
286.697
285.82
296.764
297.824
286.189
286.499
285.99
300.976
285.921
289.279
285.766
293.272
287.599
284.018
293.375
287.255
297.36
298.584
291.706
286.595
296.705
285.77
296.739
286.112
289.336
285.305
286.037
297.902
290.709
288.575
291.666
288.642
288.725
289.007
289.215
290.899
297.013
285.91
286.103
287.241
293.73
295.465
285.982
286.638
286.197
287.608
285.731
288.946
286.296
286.214
286.166
293.318
285.675
291.989
286.834
285.569
288.401
293.1
286.235
294.48
285.933
285.934
294.018
287.528
289.123
287.046
286.241
287.031
291.07
294.166
286.513
286.538
286.205
291.489
286.012
290.392
285.913
286.468
287.711
286.172
286.33
296.12
293.934
287.321
300.244
287.515
286.463
286.61
289.934
286.593
285.77
287.439
294.198
287.339
286.539
285.72
285.636
287.988
285.911
286.204
292.984
287.675
294.254
286.089
297.308
296.655
286.382
286.099
290.331
293.279
295.135
286.356
286.244
286.148
296.633
288.19
286.782
285.88
288.144
286.563
286.829
296.835
294.122
293.497
294.787
286.537
289.201
290.626
292.186
285.888
296.939
285.908
286.576
286.129
301.543
294.075
292.55
286.806
286.434
285.921
286.247
297.159
286.234
287.176
288.634
286.253
286.851
296.055
286.911
291.502
287.181
285.753
286.308
285.434
285.751
293.585
288.784
286.266
286.112
286.545
286.427
294.972
297.132
286.684
294.981
285.727
293.576
291.929
292.761
292.838
290.829
288.296
285.674
286.569
293.608
292.577
293.71
296.586
286.278
286.641
287.989
286.002
286.239
286.71
286.637
293.507
284.358
286.801
285.872
285.921
290.661
285.929
288.861
298.918
285.625
285.988
296.914
286.546
286.06
302.563
286.456
285.782
286.142
286.736
291.297
286.113
286.05
285.205
285.779
285.864
296.315
286.989
287.034
287.933
286.245
289.65
286.011
285.732
297.388
286.401
289.338
298.065
292.162
285.968
286.323
286.849
291.14
287.301
286.629
286.448
286.575
286.099
286.023
295.472
286.787
286.4
290.784
295.913
287.754
286.113
286.193
285.949
296.272
291.315
285.813
297.56
286.33
293.486
286.846
287.575
286.163
286.844
286.662
285.876
293.106
296.789
289.967
293.174
298.799
290.377
286.902
287.13
287.434
286.592
286.006
286.193
286.523
295.787
286.472
286.439
287.599
287.453
295.363
300.024
301.278
286.484
286.69
285.684
293.334
285.909
287.911
286.653
285.887
286.568
285.567
287.299
285.763
291.355
287.354
287.541
285.869
296.902
285.403
290.726
291.266
294.036
291.96
296.656
295.223
286.584
288.173
285.744
286.326
288.843
285.855
287.957
288.768
286.794
287.867
286.409
290.168
285.964
286.401
286.202
286.449
286.196
286.023
297.12
286.234
293.293
295.6
285.888
291.31
289.012
288.616
288.491
291.926
286.514
295.218
285.693
286.449
299.945
290.013
295.943
286.482
289.768
286.266
294.894
286.573
285.765
286.705
286.427
295.117
286.831
291.308
286.123
291.846
291.014
294.646
292.08
289.979
289.808
289.305
289.26
286.442
296.512
286.995
286.429
288.426
285.838
294.761
287.801
296.812
287.071
286.529
286.681
295.425
296.486
286.28
297.996
290.355
298.49
285.86
287.934
291.824
286.408
296.864
296.811
286.743
287.431
293.458
286.173
301.116
286.018
298.828
286.5
285.579
287.371
296.323
287.496
288.669
292.33
294.986
291.215
293.139
291.985
286.544
293.724
286.339
286.456
286.283
285.888
286.132
285.788
292.931
285.754
287.463
296.058
286.16
286.384
294.444
286.152
289.815
291.073
291.785
291.409
290.485
293.936
296.453
285.833
297.492
286.185
288.394
286.411
285.078
286.832
286.394
288.1
285.669
286.726
290.199
291.46
292.895
290.966
289.463
288.913
286.28
286.185
287.52
288.998
290.582
289.962
285.563
285.91
286.128
287.237
293.17
287.613
287.128
286.832
286.127
294.051
286.625
285.634
291.034
286.272
286.448
285.886
286.161
286.516
286.519
286.446
286.294
295.873
287.159
292.881
291.773
292.456
285.471
286.432
285.748
286.464
285.861
285.833
285.959
296.862
285.773
287.113
289.502
291.091
285.95
293.063
286.251
285.524
285.593
297.716
285.738
286.18
286.311
292.09
287.516
286.415
285.881
285.701
293.752
285.139
286.644
293.167
286.198
288.885
289.911
288.165
288.382
287.879
285.629
285.116
285.544
298.801
293.513
296.823
286.765
286.238
289.69
297.662
285.6
285.048
293.942
287.659
285.749
294.566
287.747
296.178
296.687
296.622
285.917
286.418
299.217
286.65
286.386
290.813
291.482
294.286
291.936
294.08
288.942
293.952
285.912
295.13
293.703
286.71
285.845
294.74
294.163
285.828
285.843
286.077
285.743
286.05
289.565
285.747
287.948
286.68
299.941
287.267
291.487
285.927
288.527
286.502
289.691
285.778
285.92
295.086
288.296
287.086
286.287
293.861
290.194
293.145
286.429
286.125
285.943
285.943
287.378
286.961
286.29
287.014
287.07
286.153
286.083
285.99
286.458
289.103
285.818
286.616
285.94
291.189
285.779
296.726
286.137
295.803
287.27
287.218
296.667
287.58
285.851
285.887
286.074
285.827
287.276
287.182
288.662
287.892
286.486
286.037
286.445
294.743
286.479
293.217
285.911
294.16
286.36
287.089
287.713
287.718
292.522
288.806
293.474
286.469
286.338
294.573
295.38
286.581
287.668
295.023
287.911
287.819
286.377
288.055
287.937
292.715
286.237
293.407
295.792
293.17
292.321
284.696
286.769
295.291
287.967
285.426
288.254
287.95
285.675
286.151
288.597
287.514
291.705
290.686
289.522
287.235
285.826
286.766
286.971
286.197
285.861
292.401
286.965
287.872
285.375
286.482
286.309
287.167
285.902
292.119
285.909
288.247
298.326
300.488
293.012
295.761
287.855
292.376
286.606
286.59
286.306
286.43
286.459
286.366
285.997
285.128
288.205
290.136
292.89
302.029
287.077
291.388
286.125
295.829
293.084
295.328
285.457
287.911
294.512
290.818
296.828
298.214
285.685
286.355
296.2
285.795
286.102
295.747
286.541
292.826
290.618
287.131
286.238
288.007
293.734
285.446
288.035
285.961
297.803
290.349
287.077
292.13
287.75
287.921
287.343
291.577
287.394
286.413
287.199
285.868
286.026
286.359
289.918
288.284
287.059
285.819
303.256
294.019
288.884
287.177
293.321
286.833
286.883
289.898
287.107
290.933
293.115
286.129
286.125
286.367
301.276
286.737
286.694
292.61
293.527
291.229
295.026
291.728
290.803
285.796
288.645
286.488
285.464
295.059
287.913
287.575
286.36
287.765
285.875
285.986
295.012
297.021
286.575
294.464
285.468
287.364
289.701
296.319
287.432
293.081
286.175
286.24
286.364
286.034
291.755
286.883
286.932
292.7
286.36
286.617
286.323
288.904
285.453
298.213
285.793
285.792
286.15
285.027
286.016
298.765
285.893
289.165
286.474
286.27
297.695
288.316
293.978
286.429
304.788
291.154
286.212
297.432
297.121
285.513
285.335
288.032
286.375
290.875
286.389
286.509
295.128
286.452
286.354
286.403
297.556
285.378
296.946
285.671
286.633
289.013
285.807
287.046
286.157
290.443
286.602
286.095
297.487
286.475
286.485
296.773
286.416
286.137
289.577
287.376
285.716
289.509
286.755
288.677
287.405
289.337
288.417
290.387
285.818
294.082
285.854
286.52
287.428
290.471
289.518
291.927
296.953
287.861
287.037
286.154
284.906
285.304
287.006
290.048
295.808
286.032
286.996
286.23
286.301
285.48
286.481
286.495
285.991
295.677
293.689
286.382
285.139
287.072
296.266
285.919
286.797
286.806
286.229
299.862
285.922
286.293
286.589
284.284
289.677
288.882
295.517
291.756
286.32
294.101
286.584
296.63
296.573
286.217
286.848
293.098
288.436
285.233
296.074
296.733
286.276
285.816
286.678
293.365
301.1
291.928
285.801
288.436
296.255
286.361
286.008
286.536
286.526
286.006
295.314
285.694
286.336
285.272
285.479
286.247
288.713
286.609
285.777
286.213
286.173
295.916
296.63
295.298
290.407
287.776
289.654
289.463
292.17
292.292
297.009
286.076
288.072
300.177
285.539
286.011
285.664
297.34
285.712
286.297
286.12
286.429
286.247
297.395
296.718
285.93
292.538
290.683
286.776
287.294
297.045
286.451
290.902
286.663
286.546
294.962
285.613
287.79
285.692
285.015
287.041
286.155
285.945
289.521
286.538
295.883
285.921
286.942
296.976
294.575
287.079
285.893
292.658
289.986
286.998
285.98
286.767
285.84
286.22
285.736
286.198
286.972
294.175
286.533
298.074
286.529
297.311
284.569
286.275
287.304
290.427
286.813
295.785
296.731
286.775
286.466
286.581
284.823
296.91
294.53
298.32
287.347
299.782
288.956
290.184
289.271
293.233
286.142
286.337
286.525
286.653
287.255
286.427
288.963
293.261
297.968
285.948
285.842
286.491
290.637
285.584
286.38
286.215
288.226
289.089
286.521
299.183
300.412
288.137
294.137
287.528
287.492
286.746
285.22
286.732
292.808
287.21
293.332
287.08
286.081
286.043
297.38
285.35
286.506
286.513
286.291
286.072
292.304
294.156
286.215
286.646
286.741
285.779
285.461
287.106
286.559
286.268
286.186
294.936
286.798
286.055
287.004
291.264
287.053
285.742
289.407
286.247
286.719
293.393
293.232
286.786
285.203
288.487
301.384
289.048
286.212
286.243
285.169
286.829
296.219
288.137
289.621
288.579
286.08
286.015
287.929
297.252
285.431
287.214
286.235
299.024
286.407
286.15
288.484
287.266
286.748
292.282
285.938
285.909
285.984
285.734
286.418
299.796
294.885
293.933
286.237
286.71
284.58
285.082
287.113
293.958
285.919
287.656
289.539
285.96
286.046
286.656
297.253
297.86
291.629
299.303
297.391
285.028
286.54
293.586
287.523
285.017
286.694
286.225
296.154
286.371
287.037
287.279
295.42
286.12
285.811
285.162
285.771
285.685
287.76
287.967
285.802
285.866
286.35
297.659
286.405
286.229
285.874
292.855
286.509
285.652
286.388
287.434
292.33
299.576
285.749
289.713
290.353
292.337
285.881
286.342
287.557
285.736
289.454
284.486
286.896
287.217
285.937
286.638
293.819
287.152
287.99
286.379
286.164
285.843
298.874
285.926
286.359
286.917
286.13
293.55
285.734
296.245
286.261
294.564
286.585
293.885
286.559
291.511
286.414
286.445
294.448
286.061
295.891
286.443
294.707
286.691
291.321
287.945
285.826
293.024
287.558
286.885
286.607
286.765
286.238
285.401
286.509
287.162
287.925
286.827
285.67
299.772
299.64
286.012
286.037
293.425
286.534
296.163
286.397
287.288
287.252
286.466
286.355
285.817
286.32
296.598
288.915
301.868
286.392
289.291
292.23
285.908
291.95
298.624
293.862
287.387
289.229
286.346
292.846
286.157
286.846
286.404
286.344
293.003
285.278
291.443
287.681
288.084
285.702
286.396
296.531
289.517
286.563
286.814
287.015
285.468
286.477
286.712
295.819
286.297
294.952
296.722
286.864
286.452
287.458
294.375
286.519
286.252
285.439
286.697
297.41
287.278
287.034
286.789
286.007
286.673
287.361
285.774
287.821
286.405
293.104
291.797
290.669
289.503
291.607
287.389
286.37
286.499
285.98
287.167
288.227
292.723
287.46
286.248
286.228
286.185
296.855
285.796
285.271
288.072
286.317
286.041
288.149
287.646
286.399
286.104
285.6
285.362
287.812
288.003
287.573
286.208
288
286.521
286.586
286.289
285.782
287.761
285.762
290.143
285.818
300.229
297.826
296.907
286.582
286.605
289.347
292.573
296.236
288.931
285.725
286.207
286.041
285.79
286.712
286.323
292.335
286.118
286.552
287.6
286.369
285.974
294.851
292.426
286.769
284.463
286.904
286.15
287.111
287.163
286.137
294.215
290.172
287.69
294.645
286.453
284.043
286.08
296.06
287.289
287.309
286.5
298.607
290.224
285.697
293.326
286.04
295.142
286.928
286.972
286.79
290.713
287.031
293.197
298.63
287.096
283.817
284.244
287.034
297.957
289.462
297.403
295.856
296.032
290.732
297.004
287.023
287.978
287.068
286.42
297.245
286.617
299.124
297.913
286.175
285.881
287.419
286.294
287.309
285.657
286.107
291.517
296.893
306.146
287.21
285.357
287.94
289.262
286.058
290.005
287.595
291.763
291.761
292.493
291.578
293.493
292.244
296.346
293.359
298.379
295.858
286.222
285.993
289.191
285.289
293.532
288.327
287.831
286.73
287.39
285.934
285.817
286.018
292.508
289.353
297.425
285.798
285.899
286.551
287.594
297.548
285.397
288.616
294.289
286.303
286.754
286.254
299.527
285.085
290.755
293.19
285.896
293.359
286.334
300.946
286.456
285.808
295.144
286.741
286.544
286.76
293.612
286.168
285.726
285.928
293.028
295.5
286.347
287.898
292.522
285.041
296.66
284.561
285.791
286.115
287.033
287.071
288.383
286.42
290.366
286.552
286.012
285.938
287.602
285.88
296.182
286.064
286.356
285.795
285.529
287.458
285.986
296.149
285.909
286.03
286.631
286.625
284.973
284.652
287.459
286.29
295
296.128
286.184
290.222
287.186
286.566
289.506
290.405
291.911
285.903
286.341
287.403
287.326
285.95
286.575
285.483
284.348
287.846
285.864
298.439
286.212
286.798
292.786
292.16
294.706
300.936
285.912
293.184
293.493
286.761
296.552
297.246
286.228
286.458
285.977
292.126