/*--------------------------------*- C++ -*----------------------------------*\
| =========                 |                                                 |
| \\      /  F ield         | OpenFOAM Extend Project: Open source CFD        |
|  \\    /   O peration     | Version:  1.6-ext                               |
|   \\  /    A nd           | Web:      www.extend-project.de                 |
|    \\/     M anipulation  |                                                 |
\*---------------------------------------------------------------------------*/
FoamFile
{
    version     2.0;
    format      ascii;
    class       volVectorField;
    location    "2000";
    object      U;
}
// * * * * * * * * * * * * * * * * * * * * * * * * * * * * * * * * * * * * * //

dimensions      [0 1 -1 0 0 0 0];

internalField   nonuniform List<vector> 
26307
(
(0.0296611 -0.140899 1.22751e-24)
(-0.0437162 -0.011023 -7.0663e-24)
(0.224566 0.0744474 -2.50991e-24)
(-0.00693172 0.0510859 -1.26337e-24)
(0.00420649 0.000369372 0)
(-0.00684576 0.0323241 4.14505e-24)
(-0.0714671 -0.000828955 -7.44012e-24)
(0.062265 0.223373 7.54211e-24)
(-0.0169589 -0.0129166 -7.32601e-24)
(-0.0066806 -0.138261 3.00979e-25)
(-0.150411 -0.164934 1.01457e-22)
(-0.165108 0.063887 0)
(0.0496673 -0.00734343 3.61296e-25)
(0.193435 0.0786887 0)
(0.0427168 -0.0554875 3.69065e-25)
(-0.0651807 -0.0780692 0)
(0.070828 0.0640409 2.85663e-24)
(-0.0177034 -0.0109601 -9.3274e-24)
(-0.0708035 0.00363927 -7.91438e-26)
(0.171608 0.143299 0)
(-0.0470232 -0.00428579 1.40193e-24)
(0.183381 -0.0177254 1.07744e-23)
(0.0142 0.0171504 -1.71158e-23)
(0.00525893 0.00830792 9.17404e-25)
(-0.0700093 -0.118905 -1.88869e-25)
(0.0537948 0.143662 -3.72976e-24)
(-0.049062 0.130054 0)
(-0.00207068 0.00341264 0)
(-0.015548 0.0288238 -1.72939e-24)
(-0.0373501 0.0143787 1.81888e-24)
(0.0469643 -0.0338934 0)
(-0.0758158 -0.347558 0)
(0.00104759 0.0439619 1.09152e-24)
(-0.0229587 0.0455926 -2.61113e-24)
(0.0375623 0.0795695 0)
(-0.230158 -0.00842006 9.67775e-24)
(0.0296223 -0.32799 0)
(-0.052846 -0.00691007 1.76074e-25)
(0.038214 -0.00521615 -2.62298e-25)
(0.0625858 0.0603083 0)
(0.0235211 0.0325359 -4.99059e-24)
(-0.0138705 -0.0938491 8.01408e-24)
(0.024046 -0.086943 -9.32819e-25)
(-0.0425225 -0.0182775 -1.34413e-24)
(-0.0759785 0.0381427 0)
(0.376992 -0.0207779 0)
(-0.102955 -0.0285963 8.12793e-24)
(-0.0408981 -0.424636 -3.31712e-24)
(-0.0119111 -0.0449269 5.55787e-25)
(-0.00964949 0.00150264 0)
(-0.0585676 0.0345687 0)
(0.0468568 -0.0282777 0)
(0.0454057 -0.151305 0)
(0.0965545 0.0563487 6.85629e-24)
(-0.0853012 0.0407523 -6.0697e-26)
(0.283204 -0.0691777 1.2813e-22)
(-0.0169065 -0.0115975 -1.71431e-24)
(-0.00918558 -0.0219629 -1.82747e-23)
(-0.0165696 -0.445422 -5.01187e-24)
(-0.136527 0.0205044 -8.1912e-24)
(0.186836 -0.0118634 -1.03208e-23)
(0.051761 -0.0151067 -5.76493e-24)
(-0.0116543 -0.00947858 5.0248e-26)
(-0.00456732 -0.0138115 -1.90906e-24)
(0.183531 0.146449 -5.63261e-24)
(-0.0506354 0.0634904 0)
(0.334152 -0.112676 3.14902e-23)
(0.0345988 0.00502843 4.4621e-24)
(0.032617 0.110423 7.91748e-23)
(-0.00611674 -0.00111552 1.78911e-23)
(-0.0790504 -0.158933 0)
(0.0390135 0.0269006 -2.66419e-23)
(0.0806067 -0.0716974 -1.0774e-24)
(-0.056161 -0.0491464 -1.88718e-23)
(0.0185024 -0.155469 1.36385e-24)
(0.0650423 -0.265335 2.14992e-24)
(0.109267 0.0789666 0)
(-0.0641988 0.0369243 1.2339e-23)
(-0.0318391 -0.0974911 3.38518e-26)
(0.0530636 -0.00787935 0)
(-0.0457992 0.0391083 0)
(0.10602 -0.0603483 0)
(0.00414803 0.0421394 3.20538e-24)
(-0.0648596 0.0855436 0)
(0.16266 -0.0275803 -1.57755e-23)
(-0.0245827 -0.434254 2.56313e-24)
(-0.146466 0.0959105 0)
(-0.135063 0.0189298 3.00098e-23)
(0.0771515 -0.214954 -1.21914e-24)
(0.0131774 -0.0921335 2.05237e-23)
(-0.0923402 -0.0807469 -3.29735e-25)
(-0.0552835 -0.0171494 8.69195e-24)
(-0.0330182 -0.0337513 1.67153e-24)
(0.0552085 0.028413 -7.17158e-24)
(-0.273945 -0.144976 8.77274e-23)
(0.0730144 0.126038 3.78067e-24)
(0.00516954 0.0110393 -4.29554e-24)
(-0.0262782 0.0384049 6.42227e-25)
(-0.0735518 -0.129272 -6.15075e-24)
(-0.102468 -0.0405517 0)
(-0.012443 0.0224776 -6.05534e-24)
(0.00189272 -0.00365826 5.6815e-27)
(0.15658 -0.0602613 5.87335e-25)
(0.00388299 -0.134752 6.3188e-24)
(0.0417915 0.0147921 5.40624e-24)
(-0.0872641 0.0177002 7.43835e-25)
(0.101247 0.0199336 9.85811e-27)
(-0.0726966 -0.0847193 -1.55739e-23)
(0.138264 -0.0340548 2.99242e-24)
(0.202501 0.0173021 7.54663e-25)
(-0.0125053 -0.178367 -6.82014e-25)
(0.0622504 -0.108245 -1.37319e-23)
(-0.0632057 0.0153849 1.90438e-23)
(-0.0354285 -0.168393 -3.0456e-24)
(-0.0199656 0.00719928 -4.19961e-24)
(0.00382528 0.072706 -1.57139e-24)
(0.0664594 -0.113909 3.71319e-24)
(-0.283542 0.0206417 8.6932e-24)
(-0.0704098 -0.400354 -1.42713e-24)
(0.0440206 -0.145436 2.3159e-24)
(0.0783018 -0.147067 -2.67187e-24)
(0.0188944 0.0190462 2.01523e-23)
(-0.0132705 0.0566864 -1.39387e-24)
(0.00328071 0.0349657 8.85311e-24)
(0.00390312 0.0184237 0)
(0.00295959 0.0417808 5.61559e-25)
(-0.0953646 -0.0675486 2.08811e-23)
(-0.260762 0.013847 -2.7019e-24)
(-0.0108934 0.0873981 -9.11133e-25)
(0.00768511 0.0458667 1.4177e-24)
(0.00981943 0.0521917 2.21476e-24)
(0.00872503 0.0550655 6.20202e-25)
(0.0653437 0.0886272 -4.60999e-24)
(0.298712 0.0185731 0)
(-0.154672 0.111501 1.4138e-24)
(-0.00256227 -0.106297 1.55226e-24)
(-0.00128178 -0.368786 1.24659e-24)
(0.0778502 -0.149434 0)
(0.0757273 0.136121 9.88512e-24)
(-0.0352235 0.0127083 -1.60557e-23)
(0.052382 -0.149916 -1.03066e-24)
(0.119305 0.0938246 -7.05485e-24)
(-0.302242 0.104212 6.27075e-24)
(0.0789651 -0.133922 1.13382e-23)
(0.236015 -0.030075 1.81931e-24)
(-0.120766 0.146895 3.75307e-23)
(-0.0204744 -0.384577 -1.31918e-24)
(0.0423292 0.00241792 -4.77074e-24)
(0.0420094 -0.00809083 0)
(-0.10263 0.0117515 -1.10918e-24)
(-0.0079858 -0.212401 1.42539e-24)
(-0.424055 0.0606846 0)
(0.0301706 0.00505646 6.08658e-24)
(0.0819529 -0.165394 0)
(0.0605564 0.0450107 6.78877e-24)
(-0.0744475 -0.184332 0)
(0.0337047 -0.00822082 -1.22957e-24)
(0.469471 0.0729903 -4.81268e-23)
(-0.0230871 0.0339358 -1.99211e-24)
(0.0372934 0.034175 -5.63627e-25)
(-0.280072 0.0764851 0)
(0.0226701 0.113085 -1.12346e-23)
(-0.417731 0.00265894 9.96908e-25)
(0.00776905 -0.184577 1.28571e-24)
(-0.103425 -0.0645623 -4.29597e-24)
(0.0806379 0.1391 1.32385e-24)
(-0.0354698 -0.324845 -4.26803e-24)
(0.0965251 0.141427 -1.91737e-23)
(0.0331752 0.0454276 6.43349e-24)
(-0.042341 0.0503229 0)
(-0.00508709 -0.118173 -2.05384e-25)
(0.0487679 0.00367869 3.67e-24)
(0.164807 -0.124038 -5.61207e-24)
(0.0112538 -0.0728716 3.58125e-24)
(0.0565393 -0.187708 -2.92669e-24)
(0.0449581 -0.0102934 2.15721e-25)
(-0.0606446 -0.177406 0)
(-0.0111602 -0.158994 4.49563e-24)
(-0.0146218 -0.12213 2.73953e-25)
(-0.0460541 -0.200697 0)
(0.590132 -0.0966691 1.08206e-22)
(-0.44072 -0.0658688 2.40245e-22)
(0.0114183 -0.203865 -1.83431e-25)
(0.0129434 0.00147856 0)
(0.0261838 -0.010278 0)
(0.203168 0.0150652 -6.72483e-25)
(0.217358 0.0823746 4.27019e-24)
(0.0282169 0.0477304 2.19849e-24)
(0.0716401 -0.0446917 -2.12557e-23)
(-0.0540729 0.0766906 -2.50678e-24)
(0.0490981 0.0422248 -2.01975e-24)
(-0.0749992 -0.124197 -1.7203e-24)
(-0.00891148 0.0460117 0)
(-0.0325737 -0.137484 -3.97987e-24)
(-0.108821 -0.00355366 -9.97532e-24)
(7.40611e-05 0.0231747 -2.09207e-23)
(-0.0582061 0.0587643 -1.01263e-23)
(-0.0672686 -0.100044 -6.39806e-24)
(0.198102 -0.0163811 -1.877e-23)
(0.052329 -0.308349 -6.8356e-25)
(-0.048358 0.0678212 -6.0323e-24)
(0.121879 -0.0662007 0)
(0.343771 0.0127188 -2.39333e-24)
(-0.0028914 0.0676198 4.22141e-25)
(-0.0685251 0.0487659 -4.4401e-24)
(-0.633112 0.0228637 0)
(-0.0398849 0.00758876 2.74136e-25)
(0.0581992 0.0433622 0)
(-0.0676575 0.101164 3.34022e-24)
(-0.0377124 -0.0198279 -2.59494e-26)
(-0.396442 0.0143859 -5.14479e-24)
(0.0886875 0.13498 3.61396e-24)
(-0.0203675 -0.00994072 -5.29137e-25)
(0.00306275 0.0647152 -1.77109e-24)
(0.0485329 -0.0292219 2.41157e-24)
(-0.033854 -0.349153 6.65867e-24)
(0.130192 0.0851003 -1.85548e-24)
(-0.0668564 0.0867139 1.64287e-24)
(0.0676734 0.00211652 9.39967e-24)
(0.0467504 0.0140319 1.97732e-23)
(0.0476169 0.119426 3.13459e-24)
(0.0245664 -0.0082691 1.62406e-26)
(0.0713443 -0.12298 -4.94708e-25)
(-0.0811489 0.0962713 -4.60203e-24)
(-0.00455526 0.0744623 0)
(-0.0560422 -0.0437306 0)
(0.00950589 -0.078059 1.01488e-23)
(-0.041165 0.0804356 -3.46921e-24)
(-0.0203626 -0.106644 0)
(0.0575365 0.0252171 -1.52847e-24)
(-0.0569782 0.018705 9.91873e-25)
(0.114057 0.0110739 -3.60017e-25)
(0.0168534 -0.0328201 -5.96796e-24)
(0.23014 0.0842692 -2.5096e-24)
(-0.0209732 -0.00997343 2.69674e-25)
(-0.0176826 0.00361519 -4.4811e-24)
(0.0135524 0.0856799 1.04202e-23)
(-0.0390298 -0.00653178 7.76049e-26)
(-0.0666195 -0.0759539 5.28506e-25)
(0.285908 0.0335485 -5.95865e-25)
(0.0258545 0.0664218 1.07548e-24)
(0.0218891 -0.0131431 8.68427e-23)
(-0.0253777 0.0610067 4.10692e-24)
(-0.0246616 0.00436882 -4.59688e-26)
(0.0493897 0.129735 4.82644e-24)
(-0.0183914 0.0680948 1.71722e-23)
(0.141229 0.170164 -1.77296e-23)
(0.0026212 -0.35713 0)
(0.0611935 0.127982 1.06879e-24)
(-0.0562059 -0.0322305 -7.41512e-25)
(-0.343644 -0.181024 -7.30146e-23)
(0.0549334 -0.0210766 -3.98195e-25)
(0.00253234 0.0339994 -1.12163e-27)
(0.00543081 0.0670073 0)
(0.00580854 0.064551 -3.23325e-25)
(0.000192454 0.0374538 0)
(0.00445378 0.0667603 -3.85094e-25)
(0.00536562 0.0767784 0)
(0.016475 0.0636105 0)
(-0.0187971 0.0744382 -1.44576e-24)
(0.171419 -0.0642286 -6.24104e-24)
(0.00155285 0.0191198 -3.92414e-23)
(0.00224026 -0.00739096 4.97261e-24)
(0.00533138 -0.0205105 -1.96035e-23)
(0.00513537 -0.178874 -1.38206e-24)
(-0.0131695 -0.0119448 1.53235e-23)
(-0.291624 0.106651 1.77126e-22)
(-0.0196898 -0.450535 7.61808e-25)
(0.00472915 0.0766494 0)
(-0.0210265 -0.0805194 0)
(-0.00716896 -0.40761 3.68311e-24)
(-0.0346129 -0.290166 -5.20888e-25)
(0.0730714 0.0382591 -1.23801e-24)
(0.36541 0.0107326 -3.25784e-24)
(-0.0133404 -0.0723308 -1.04861e-24)
(0.0761574 0.0226808 -1.5067e-24)
(-0.00216779 0.0460998 5.03968e-24)
(-0.0328164 -0.0313295 -1.69598e-24)
(-0.0658285 -0.120979 -1.40688e-24)
(-0.0933305 0.0521685 -2.12563e-24)
(0.128272 0.115469 1.74985e-24)
(-0.15584 0.126369 0)
(0.197049 0.192455 -7.69831e-26)
(0.0201034 0.0243982 0)
(0.448485 0.0202015 -1.02026e-23)
(-0.122925 0.0411712 0)
(-0.49551 -0.0354754 3.79431e-23)
(0.0649308 -0.122241 2.61634e-24)
(0.0594654 0.0599092 -4.11081e-24)
(0.00273354 -0.344546 -3.63055e-24)
(-0.080205 0.0109038 0)
(-0.03438 0.0313661 -8.4467e-24)
(0.0434834 -0.189778 6.91066e-24)
(-0.0613484 -0.534457 0)
(-0.0629043 -0.521836 1.67233e-24)
(-0.0524857 0.0765806 0)
(0.039324 -0.00564015 -9.60598e-24)
(-0.0293966 -0.00123575 0)
(-0.0564481 -0.540533 -7.87364e-25)
(0.0372903 0.0987906 3.84125e-25)
(-0.0540614 0.090701 0)
(-0.314415 0.0350545 -1.00248e-23)
(-0.0669939 -0.487264 1.33353e-24)
(-0.0650895 -0.554582 -1.19364e-24)
(0.0017271 0.00296298 1.99099e-24)
(-0.00143985 0.00437326 -3.46044e-25)
(-0.0922474 0.000862695 -6.75074e-24)
(0.0477626 0.0432018 0)
(0.0394566 0.233038 -1.37325e-23)
(0.0972463 -0.0263109 0)
(0.0651403 -0.277215 0)
(0.0345167 0.102223 -1.44279e-23)
(0.306925 -0.0436129 2.16022e-23)
(0.0289594 -0.0218524 1.95092e-24)
(0.0790939 0.00404551 -5.63777e-24)
(0.0875272 -0.0775301 1.10599e-23)
(0.0554978 -0.0120894 -4.96308e-25)
(-0.177618 0.0874298 7.2306e-24)
(-0.00725278 -0.0290704 5.72798e-25)
(-0.0981198 0.0588417 6.50636e-24)
(0.0762879 0.0896211 -7.95247e-24)
(-0.0927998 0.0918487 -3.59554e-24)
(0.274262 -0.0121841 0)
(0.176473 0.118888 -1.18983e-23)
(0.0133322 0.078749 -2.39297e-23)
(-0.03225 0.0446349 -3.10908e-25)
(-0.0622204 -0.050052 -1.72913e-24)
(0.0889832 0.203559 -1.79562e-24)
(0.288505 -0.116871 2.37947e-23)
(0.0843873 0.124098 6.97736e-24)
(0.0436255 -0.260908 -5.00677e-25)
(0.0150773 0.0490818 2.46571e-24)
(-0.110229 0.0112945 1.45253e-22)
(-0.0583255 -0.531806 1.01903e-24)
(0.115956 0.131176 5.44221e-24)
(0.000551822 0.0678174 0)
(-0.0338259 -0.122222 2.39727e-24)
(0.0523597 -0.00829997 1.58805e-24)
(0.0176856 -0.21112 3.04955e-24)
(0.077071 0.142477 6.33755e-24)
(0.0392648 -0.170731 1.54102e-24)
(-0.00496721 -0.00213597 1.23086e-24)
(0.0939972 -0.0886055 0)
(-0.0177245 -0.0415288 2.55391e-25)
(0.0128881 -0.0379275 1.27733e-23)
(-0.0253083 -0.444009 -7.26549e-29)
(0.0898664 0.145089 6.50681e-24)
(-0.00517874 -0.0306476 5.72483e-24)
(-0.0869369 0.123835 -1.05176e-23)
(-0.0402271 0.0950309 8.03006e-24)
(-0.0503292 -0.53592 1.34539e-24)
(0.00313946 -0.0281612 0)
(0.00995804 -0.0846516 3.48083e-24)
(0.0373126 -0.00652334 -3.91694e-24)
(-0.0707088 0.11645 9.89223e-26)
(-0.0643029 -0.508261 3.26171e-24)
(-0.0129366 -0.0254593 -1.98589e-24)
(-0.00599581 0.0266486 5.66653e-24)
(-0.0119211 0.0411119 -2.38233e-25)
(0.103063 0.10289 -2.67002e-25)
(-0.0791953 0.0917578 -1.32644e-25)
(-0.0371273 -0.0102527 0)
(0.113407 0.143465 -2.46858e-23)
(0.32111 0.00108299 0)
(-0.0898687 0.00339748 1.5175e-24)
(0.0756329 0.00642625 -1.00257e-25)
(-0.0182482 -0.651583 6.07392e-24)
(0.0866033 0.14256 5.04624e-24)
(-0.0392137 -0.0312233 5.58945e-24)
(-0.0886283 0.138326 -4.39851e-24)
(-0.118689 0.133307 0)
(0.118725 0.282483 -1.0748e-23)
(0.06499 0.0105716 5.75105e-24)
(-0.182065 0.11841 7.03562e-24)
(-0.0996374 0.0518827 -1.60333e-24)
(0.063192 -0.0363954 -1.20904e-24)
(-0.100186 -0.0622361 0)
(0.00809767 -0.331371 -2.05932e-24)
(0.0890702 0.0882924 4.41992e-24)
(-0.0319982 -0.0271719 -6.91356e-25)
(-0.0411153 -0.166216 -1.54887e-24)
(0.00645343 0.0533257 0)
(0.0865907 -0.019125 1.90642e-24)
(-0.00749294 0.0822911 -1.51862e-24)
(-0.0074149 0.069045 0)
(-0.0735611 -0.32784 -3.35071e-25)
(0.027786 -0.30777 0)
(0.0292909 -0.25556 -5.11253e-24)
(0.00112471 0.126179 -2.58719e-24)
(-0.113315 -0.0710816 4.72876e-24)
(0.00733966 0.136835 2.71281e-24)
(-0.0525305 -0.531647 -1.03639e-24)
(0.225827 0.0767143 5.54822e-24)
(-0.215342 0.0812376 1.24434e-24)
(-0.0796279 -0.20345 0)
(0.0806201 -0.203271 4.9562e-24)
(0.0107247 0.02837 4.03961e-24)
(-0.0660618 0.00992641 -2.63749e-25)
(0.0471676 0.0171147 1.36635e-24)
(0.0831718 0.035023 -9.1576e-24)
(-0.198669 0.0737815 0)
(-0.0138479 0.0450738 6.26156e-24)
(0.00433572 0.0662757 1.81042e-24)
(0.202248 0.108242 7.98751e-23)
(0.00463133 0.0371956 0)
(-0.0784221 0.00844973 -1.44158e-24)
(0.190068 0.0776112 2.18647e-24)
(-0.079162 0.00733817 9.22397e-23)
(-0.0599331 -0.521524 -2.11979e-24)
(0.268134 0.0367395 9.22735e-24)
(0.00547715 0.00209283 -6.29965e-26)
(-0.224665 0.0861023 -1.3873e-24)
(-0.0745863 -0.0999119 4.4936e-24)
(-0.0428498 -0.521191 3.52359e-24)
(-0.0267694 0.075452 -9.36312e-26)
(-0.0179245 -0.00717614 -5.20903e-25)
(-0.0738797 0.0295022 -4.22123e-24)
(-0.0254186 -0.0150882 6.81375e-25)
(0.00388394 -0.00657024 2.36075e-23)
(0.175274 0.16761 -1.6551e-24)
(0.0945477 0.0244873 1.41339e-24)
(0.000748348 0.0652524 -1.05086e-24)
(-0.066134 -0.130621 -5.39184e-24)
(-0.0173497 0.0709141 -2.47654e-24)
(0.0581858 -0.0366818 -5.54285e-25)
(0.0635371 -0.283677 3.75904e-24)
(0.449259 0.052475 -7.1455e-24)
(0.0230902 0.053542 3.87523e-24)
(0.090183 -0.105945 -3.67228e-24)
(-0.0642116 0.046347 -1.71389e-24)
(-0.0375609 -0.0296383 0)
(-0.00220229 -0.69899 -5.08462e-24)
(0.14253 0.14112 -3.90529e-25)
(0.00868441 -0.386599 -3.47883e-25)
(-0.0353773 0.0236493 -2.36509e-23)
(0.0415839 0.137111 -1.26898e-23)
(0.077541 0.000703824 -4.30835e-25)
(0.0807189 0.135933 1.87769e-23)
(-0.0487465 -0.53774 1.35912e-24)
(-0.0473101 -0.52085 -3.43377e-24)
(0.00220267 -0.0348473 -2.90712e-26)
(-0.0851041 0.141716 -8.62444e-24)
(-0.0922722 0.00131881 2.50162e-24)
(-0.0267132 0.0282875 0)
(0.014466 -0.200387 -9.66045e-25)
(0.407661 -0.0214711 -5.66381e-25)
(0.0345228 0.0591186 -4.35177e-24)
(-0.0797536 -0.0924882 7.8922e-24)
(-0.118051 0.0679715 7.99954e-25)
(-0.0634625 -0.0620938 1.33714e-23)
(-0.00148948 -0.362586 6.19656e-24)
(-0.00971351 0.0290905 -3.0496e-25)
(0.125956 0.188543 9.96328e-27)
(0.209289 0.0656155 3.43235e-25)
(0.148351 -0.0489426 2.1828e-24)
(-0.145145 0.0579425 -5.14699e-25)
(0.1052 0.106894 6.69789e-25)
(0.28817 0.0199313 1.34327e-23)
(-0.0887212 0.0763432 -4.99941e-24)
(-0.0465675 -0.196349 -2.77917e-24)
(-0.121712 0.0295739 -8.17781e-24)
(-0.0555289 0.0635244 0)
(0.0648637 0.00980368 1.36983e-24)
(-0.082539 0.0840631 0)
(0.10761 0.0980292 -4.28597e-24)
(0.0230935 -0.226266 6.88257e-24)
(0.0375368 0.0334975 1.90773e-23)
(0.00906512 0.0530679 7.65153e-24)
(0.0583824 -0.0414917 -1.33721e-23)
(0.0741152 0.0446349 -1.59057e-24)
(-0.22006 -0.027757 1.49466e-23)
(-0.0255078 -0.0024769 -2.27964e-24)
(-0.0548394 -0.546918 -7.24744e-25)
(-0.0650674 -0.519361 -1.11731e-24)
(0.0928875 0.112232 9.4727e-24)
(-0.0730602 0.109726 0)
(-0.323146 0.0256717 -8.69854e-23)
(-0.157362 0.0183329 1.76271e-24)
(0.416259 0.0201254 0)
(-0.0485021 -0.0671192 -8.41481e-25)
(-0.0679351 -0.478869 0)
(0.0499633 -0.0155545 0)
(-0.0590479 -0.017585 1.25214e-23)
(0.0389436 0.00106498 -2.47177e-24)
(-0.112102 0.0317211 -7.00485e-24)
(-0.193088 0.0839593 1.8393e-25)
(-0.0542015 -0.525489 -4.63143e-24)
(0.0133133 0.031377 -3.38749e-24)
(0.00865817 -0.328619 0)
(-0.53243 0.0261275 1.1386e-23)
(0.0460213 0.107985 7.33244e-24)
(-0.0847957 -0.00235804 0)
(0.243733 0.202902 -2.17847e-24)
(0.484139 0.0178102 -8.34142e-24)
(0.0437568 -0.0325924 -4.34573e-24)
(0.135123 0.222169 4.91453e-24)
(-0.0661592 -0.503407 0)
(0.00503732 -0.146093 4.0337e-24)
(-0.0142406 -0.107317 -4.0518e-24)
(0.0620625 -0.116996 6.52103e-24)
(0.110715 -0.0768108 -4.66747e-24)
(0.0815988 0.0715242 1.6565e-24)
(0.0413398 -0.00445944 3.03284e-24)
(0.0048501 0.0397825 3.70754e-24)
(-0.0236049 -0.322108 -6.22952e-24)
(0.0622563 -0.121044 5.25129e-25)
(-0.121193 -0.0668477 6.1323e-25)
(-0.327389 0.00517031 -6.06847e-24)
(0.0733144 0.0592878 -2.58523e-24)
(0.0933051 0.137478 1.27176e-23)
(-0.00252815 0.0417339 -3.26152e-24)
(-0.000163216 0.0211871 5.01245e-24)
(-0.00310715 0.0477267 5.67924e-24)
(-0.00369085 0.047144 -2.67469e-25)
(-0.0998176 0.140813 -8.5726e-24)
(0.0316391 -0.0048354 0)
(-0.0648194 -0.133728 -2.88656e-24)
(-0.167231 0.0977351 -4.04978e-26)
(-0.0644509 -0.337523 -2.43172e-25)
(0.0378205 0.0230507 2.38855e-24)
(0.0243319 -0.0360382 -2.06839e-23)
(-0.0330083 0.0498398 3.96348e-24)
(-0.101656 0.0186136 0)
(0.0322314 -0.155332 0)
(-0.0461389 -0.00356674 0)
(-0.0340277 -0.0286073 -4.1817e-24)
(-0.0268095 -0.0303861 4.30362e-24)
(-0.0639279 -0.533625 -2.14962e-24)
(-0.00830265 -0.133584 4.17825e-24)
(-0.0481729 -0.0301034 3.79219e-24)
(-0.180518 0.0700233 0)
(-0.0599607 -0.545198 -1.58922e-26)
(-0.0698245 -0.381482 6.33146e-24)
(0.273109 0.0161428 2.1348e-25)
(0.0142446 0.0340464 2.78204e-24)
(-0.0622506 -0.498396 -8.39078e-25)
(-0.0182989 0.0630764 0)
(-0.0612989 0.0397562 -1.98626e-24)
(0.0575808 0.105674 3.13224e-24)
(-0.0601534 0.0349748 -5.95921e-25)
(0.0491187 0.0151493 4.44005e-24)
(-0.0556442 -0.517897 -2.3167e-24)
(0.71351 0.0122776 2.03079e-24)
(-0.0668777 -0.497922 6.78526e-25)
(-0.19126 0.0531904 4.18282e-25)
(-0.0533985 -0.360719 0)
(-0.00343569 0.0839206 -1.91132e-24)
(-0.177492 0.0437993 1.58646e-24)
(-0.304905 0.00251653 0)
(0.130562 0.133096 0)
(-0.0226616 0.0313339 -1.55359e-24)
(0.00136456 -0.362621 -1.97189e-25)
(-0.063662 0.0592337 -4.53371e-25)
(0.05463 0.0204543 9.88444e-25)
(0.321167 0.0244417 -7.19838e-24)
(-0.117909 0.0551675 -3.78043e-24)
(-0.120716 -0.0336724 0)
(0.00217776 0.0463776 -8.53299e-24)
(0.0061373 0.0855259 -8.17967e-24)
(0.0827104 -0.138991 9.26385e-24)
(-0.0971311 0.0749611 -3.01907e-24)
(0.124281 0.0890276 3.1963e-24)
(0.0642269 0.143574 -1.08202e-23)
(0.36088 0.0159254 0)
(0.463076 -0.0252729 2.69731e-23)
(-0.0571464 -0.3771 6.09316e-24)
(0.0536546 -0.083657 -6.50391e-25)
(-0.0861516 0.0680171 -2.17857e-24)
(0.187912 0.0251853 2.22405e-25)
(0.0896597 0.0817692 9.62489e-25)
(0.0666218 -0.112836 6.74311e-24)
(-0.0577285 -0.102031 2.97953e-24)
(0.0225933 -0.0108628 1.197e-23)
(-0.0326142 -0.0110421 -3.7505e-24)
(0.0497163 0.0595084 1.01254e-24)
(-0.373778 -0.0182645 2.9231e-25)
(0.0137893 0.0451464 1.57477e-24)
(-0.0200269 0.0539202 -2.90141e-25)
(-0.0535409 -0.550932 -1.16857e-24)
(-0.0687145 0.0238316 5.14694e-24)
(0.0575753 0.0310769 -6.23731e-24)
(0.105461 0.138493 -1.75187e-24)
(0.0901406 -0.0123966 0)
(-0.0720746 0.00999158 7.74444e-25)
(0.0674753 0.0104409 -3.17226e-25)
(-0.061229 -0.509928 0)
(-0.114317 0.139058 5.6823e-24)
(-0.00676849 -0.0589041 6.38224e-25)
(0.353342 -0.0236658 6.94227e-25)
(0.0427219 0.0371845 2.51008e-24)
(0.28994 0.00535187 -6.71951e-26)
(0.164711 0.14439 -4.2482e-24)
(0.0855032 0.0160941 4.71441e-26)
(-0.0758497 0.0118164 -8.69214e-25)
(0.232642 0.08047 6.37058e-25)
(0.0789185 -0.135511 3.78572e-25)
(-0.0448475 -0.0383381 0)
(0.10734 0.122167 5.59889e-25)
(-0.018966 -0.0604838 0)
(-0.0589786 0.0261038 0)
(-0.00226761 0.106822 -8.03565e-26)
(0.215179 -0.0487903 -1.02976e-23)
(0.187243 0.143096 0)
(0.0890885 -0.010185 4.04155e-24)
(-0.0116627 -0.118205 -5.17742e-24)
(0.350815 0.00607155 2.15471e-24)
(-0.0227302 0.042766 0)
(-0.0116558 0.0539251 2.77202e-24)
(-0.0105184 0.0574458 -1.2258e-24)
(-0.0110953 0.0605886 0)
(-0.0113978 0.0508429 -1.31733e-25)
(-0.00989299 0.0536337 1.97533e-24)
(-0.0164606 -0.190682 -1.5729e-24)
(-0.450527 0.0055594 -1.67786e-24)
(-0.0520294 -0.149165 -1.14205e-23)
(0.0974408 0.098665 4.44831e-24)
(0.107411 0.222817 -4.62858e-24)
(0.0674896 -0.2144 1.03097e-24)
(-0.392005 0.00338398 1.32055e-24)
(-0.00437282 0.037029 1.15984e-24)
(-0.0312495 -0.484028 7.19087e-24)
(-0.0251964 -0.396269 -1.01932e-24)
(-0.0638921 -0.0205984 -2.65305e-24)
(0.0169872 -0.216316 -6.62628e-25)
(0.0665421 0.0457921 0)
(-0.114812 -0.0463526 9.10516e-25)
(0.0731036 0.0724124 8.85503e-24)
(0.0351909 -0.0262252 0)
(-0.0697218 0.0471005 -7.5349e-24)
(0.0439643 -0.0323664 -4.80438e-24)
(0.10469 0.126692 4.69908e-24)
(-0.0674687 -0.472349 4.09202e-24)
(-0.0197368 0.0151145 1.12811e-24)
(0.036235 -0.0100518 5.02533e-24)
(-0.119196 0.137776 1.40766e-23)
(0.0779754 0.076556 -1.32039e-23)
(0.0709282 -0.214077 -1.64013e-24)
(0.206958 0.0773844 -1.63882e-24)
(-0.191607 0.073959 -2.1582e-24)
(-0.0594727 0.0452597 -1.5696e-24)
(-0.0163511 -0.083932 -1.49715e-24)
(0.269325 0.014925 -8.01069e-25)
(0.041998 -0.329407 5.02558e-25)
(0.0130486 0.0411798 2.6541e-24)
(-0.151099 0.0777509 -2.76057e-24)
(-0.0588578 -0.553692 0)
(0.0710585 0.0159116 0)
(-0.0228292 -0.0433631 -1.71661e-25)
(0.0585127 0.0309017 0)
(0.282479 0.00440844 -3.50925e-24)
(0.144581 -0.0797217 -1.88098e-25)
(0.131842 0.143958 1.52014e-24)
(0.239658 0.00543973 0)
(-0.0722495 0.0125829 6.91501e-25)
(-0.164152 0.0351872 1.03569e-24)
(0.0298108 -0.0283675 1.93034e-25)
(0.0868345 -0.0724347 -5.22949e-26)
(0.0620312 -0.0145266 7.99894e-24)
(-0.424016 0.0637177 -4.06397e-25)
(0.00679506 0.0362157 -1.09793e-23)
(0.138449 -0.045392 9.699e-26)
(0.0528406 -0.0822268 8.14618e-23)
(-0.142441 -0.0614202 -3.50003e-24)
(-0.0634234 -0.0259443 2.24982e-24)
(0.0438094 0.00548408 3.29651e-24)
(0.0293607 -0.103295 -4.0955e-24)
(-0.507872 0.0327617 0)
(-0.0100623 -0.0164195 -9.0066e-24)
(-0.0619544 0.0361666 -6.45124e-24)
(-0.0121811 -0.16374 5.94922e-24)
(-0.0464106 0.037314 0)
(0.0865023 0.00759506 5.89118e-25)
(0.0635132 -0.105773 9.18041e-24)
(0.0842497 -0.143596 9.67772e-24)
(-0.0395397 0.0741981 4.96719e-24)
(0.34014 0.00557714 1.51824e-24)
(0.0396912 0.0381393 9.37052e-24)
(-0.076043 -0.27113 0)
(-0.117612 0.0523415 4.89933e-24)
(-0.65877 -0.206111 0)
(-0.205521 0.111095 2.06112e-25)
(0.0343331 0.110549 0)
(-0.07443 -0.207307 -2.89314e-24)
(0.310922 -0.0150736 -6.8718e-24)
(-0.0950324 0.0817736 -7.66827e-24)
(0.049104 -0.0351173 5.95242e-24)
(0.030579 0.0219692 -1.55384e-22)
(0.123226 0.0159788 -2.66418e-24)
(-0.0469752 -0.534645 -2.0367e-25)
(-0.0106884 -0.255456 -1.38369e-25)
(0.509866 0.02067 0)
(-0.0146315 0.0443538 3.09737e-25)
(-0.0652856 -0.494672 0)
(-0.0301102 0.0906299 1.64336e-23)
(-0.165621 0.0375456 1.92381e-23)
(0.0751001 0.0455289 -3.37518e-24)
(0.0216197 -0.0994388 4.62582e-23)
(0.00659288 -0.0216485 0)
(-0.190174 0.0531141 -1.1304e-24)
(-0.0715411 -0.117896 3.79241e-24)
(-0.0688156 -0.451898 -2.79819e-24)
(0.0723973 -0.185625 5.01029e-24)
(0.0977913 0.0914649 -1.09362e-24)
(0.275561 -0.00282098 5.1036e-24)
(0.00273886 0.00887493 -3.75276e-24)
(0.0597597 0.0317066 -6.77456e-24)
(-0.148779 0.125786 1.59514e-24)
(0.0679431 0.106144 -5.70619e-24)
(-0.0656519 -0.515021 -2.09901e-24)
(-0.0195735 -0.0288647 -3.40667e-24)
(0.0938247 0.121123 5.49054e-24)
(-0.0623824 0.12196 0)
(0.057545 0.0135568 0)
(0.0121763 0.0697827 5.05768e-25)
(0.164245 0.016745 -2.89711e-23)
(0.0679525 0.14455 6.96963e-25)
(-0.0590329 -0.0420397 -3.72918e-24)
(-0.0475347 -0.537239 0)
(0.00607926 -0.131973 0)
(-0.0464954 -0.0256417 -2.10402e-24)
(0.0706285 -0.00169309 8.03456e-24)
(-0.173128 0.0437388 4.06464e-25)
(-0.0847995 -0.191586 -8.07903e-24)
(-0.16243 0.0255765 -1.43939e-24)
(-0.0767765 -0.242184 0)
(-0.0407144 0.000500103 1.21098e-23)
(-0.0492107 0.0225494 -9.78344e-24)
(0.118548 0.156334 6.85817e-24)
(0.0671963 0.044459 -7.2289e-25)
(0.0121245 0.0181549 -4.98204e-25)
(-0.198614 0.0652662 1.68661e-22)
(-0.174063 0.0760573 3.38117e-25)
(-0.157724 0.0263029 -2.69741e-24)
(-0.0415226 -0.518763 -2.57786e-24)
(0.03849 -0.181758 4.7143e-24)
(0.329027 0.224617 3.06875e-23)
(-0.0301845 0.0707277 -2.74374e-24)
(-0.456111 0.0140367 5.47564e-24)
(0.0735665 -0.0734664 -1.93072e-24)
(0.00167412 0.0129253 -5.84433e-24)
(-0.0596328 -0.459807 0)
(0.0300357 0.069555 9.43695e-25)
(-0.0782876 -0.304827 -1.34538e-24)
(-0.238383 0.0788057 1.23536e-22)
(0.106102 0.10894 3.88925e-24)
(-0.115346 0.0678229 2.58556e-24)
(-0.0863282 0.108657 0)
(-0.00289095 -0.0128846 0)
(-0.000190597 -0.0118174 1.06793e-24)
(-0.0198278 -0.0148085 9.39181e-24)
(-0.0103503 -0.0644545 -2.3375e-24)
(0.702014 0.00825777 -1.97761e-24)
(0.20822 -0.0534675 3.53041e-23)
(0.121824 0.121671 9.40324e-25)
(0.0678262 -0.212841 0)
(0.0275423 -0.0175562 -5.45293e-24)
(-0.0167698 -0.022499 7.68168e-24)
(-0.201224 0.0766956 -1.51769e-25)
(0.0838793 0.0700166 -2.07269e-24)
(0.00393145 -0.122864 -1.70963e-24)
(0.0249625 -0.0480154 -4.48707e-24)
(-0.0300132 -0.449263 -2.58604e-24)
(-0.0194134 0.0496401 -1.14441e-24)
(0.0927738 0.0176642 1.52554e-24)
(-0.0799545 0.014708 -2.90239e-25)
(0.105585 0.0386729 0)
(0.124391 0.135654 1.19315e-26)
(0.274997 0.287666 -1.26114e-24)
(0.00344049 -0.173156 1.7914e-24)
(0.032389 -0.291543 0)
(0.00693341 -0.109222 -9.99461e-25)
(0.11285 0.114917 0)
(0.0188526 -0.0206731 0)
(-0.00868658 -0.00481622 -1.6617e-24)
(0.0664585 0.0354615 5.48783e-25)
(-0.190285 0.0485194 1.40662e-24)
(-0.00510419 0.00805037 8.0275e-24)
(0.320661 0.0181741 -7.86108e-25)
(-0.200393 0.0617204 0)
(0.0779307 -0.0640272 -1.21082e-23)
(-0.0581252 0.0173465 0)
(0.0322771 0.0548841 0)
(0.0623296 -0.190681 -3.78764e-26)
(-0.205687 -0.0268663 4.25126e-23)
(-0.0475518 0.0491742 1.42558e-24)
(-0.0676096 0.0757425 -4.70067e-24)
(0.0664691 -0.0939723 -5.87356e-24)
(-0.0848544 0.0253457 -4.81824e-24)
(-0.0945313 -0.100089 3.72255e-24)
(-0.036306 -0.111202 -4.32009e-25)
(-0.0252417 0.0224304 -4.20081e-23)
(0.0376126 -0.171873 -8.00065e-25)
(0.08832 0.0735952 3.70477e-25)
(-0.0303973 -0.0261187 -3.05291e-25)
(0.0230502 -0.0867505 2.83486e-24)
(-0.0383334 -5.6874e-05 -5.15114e-25)
(-0.207137 0.0236356 0)
(0.075264 0.0584927 -9.43256e-25)
(-0.182598 0.0390472 -2.89496e-24)
(0.119429 0.0153823 0)
(-0.00918537 -0.0983811 -2.17748e-24)
(-0.0253207 -0.595165 -2.88287e-24)
(-0.170227 0.0348798 3.67237e-24)
(0.0586075 0.0882492 9.06429e-25)
(0.0816314 0.105902 0)
(-0.0281012 0.0684192 4.79084e-26)
(0.0618099 0.036262 -1.90348e-24)
(0.0760327 0.0670629 -1.64614e-24)
(-0.0647857 -0.00595073 -3.06768e-25)
(-0.461298 -0.0256578 6.73194e-23)
(0.339908 -0.0168732 2.56551e-23)
(-0.0734885 -0.118906 -3.47933e-24)
(-0.0665084 -0.481722 -3.81055e-26)
(-0.0248988 -0.617052 -2.09803e-24)
(-0.0841073 -0.171591 -4.13592e-25)
(0.0749811 0.141215 4.65038e-24)
(0.0696296 0.114767 2.43932e-24)
(-0.143802 -0.0579043 -2.85185e-24)
(0.0755528 0.0849602 4.77646e-24)
(-0.0481606 0.0293628 2.64583e-24)
(-0.0751698 0.13966 0)
(-0.0415415 0.0659323 -2.95276e-24)
(0.0548753 0.0393639 0)
(0.0753326 0.00687158 -4.6822e-25)
(-0.0862247 0.00467706 3.97789e-25)
(0.00176274 -0.113792 -1.70382e-25)
(-0.026849 0.0470598 -8.74281e-25)
(-0.0256924 0.0616078 2.85596e-24)
(0.0764943 -0.136121 0)
(0.0635961 0.0516499 0)
(-0.0593263 0.0301659 1.67272e-24)
(-0.00721235 0.0372027 9.09475e-25)
(0.0117071 0.0401004 5.89101e-24)
(-0.153916 0.0805177 -4.21712e-24)
(-0.00668865 -0.0760671 -2.32963e-24)
(-0.276963 0.0311202 1.02459e-24)
(-0.0176792 0.050663 -4.02359e-24)
(0.0654308 0.0706761 -1.87946e-24)
(0.106508 0.10036 -7.40144e-25)
(-0.0439188 -0.100148 0)
(-0.0380998 -0.193737 1.34494e-24)
(0.039239 -0.0589482 5.31411e-24)
(0.0333636 -0.253323 5.07792e-25)
(0.00944006 -0.14368 -3.52189e-24)
(-0.130773 0.0938418 0)
(-0.00440837 -0.251798 0)
(0.0642075 -0.0853256 6.88535e-24)
(-0.0950983 0.017989 1.00997e-23)
(0.0515753 0.13568 4.22375e-24)
(-0.048425 0.139887 1.68363e-24)
(0.166628 0.0330024 9.55937e-24)
(0.0525223 0.0210734 -2.48271e-24)
(0.0359051 0.121425 -4.27653e-24)
(0.0370319 -0.16081 5.32252e-25)
(0.138126 0.0355138 -2.868e-24)
(0.0444211 -0.306902 -1.21616e-23)
(-0.0843015 -0.076506 -1.02446e-24)
(0.0144957 -0.00708762 -6.21672e-24)
(-0.0277932 0.0148136 1.6785e-24)
(-0.325114 -0.00703139 0)
(-0.343573 -0.0124724 0)
(0.249668 0.007726 -4.59512e-24)
(-0.174113 -0.0982689 -6.89545e-25)
(-0.0250061 0.056082 2.90923e-24)
(0.0300518 -0.0997145 -3.19232e-25)
(0.0688485 -0.264188 8.04845e-26)
(-0.0579948 -0.117191 0)
(-0.0673777 -0.033388 -8.4795e-23)
(-0.0581361 -0.559505 5.56657e-25)
(-0.00470436 0.0587338 1.12175e-24)
(-0.00414555 0.0530314 9.44933e-25)
(-0.00265452 0.0444764 9.00728e-25)
(-0.004454 0.0572885 -1.45231e-25)
(-0.00689043 0.050313 0)
(-0.000946608 0.0388481 -6.18981e-24)
(0.00402745 0.0517932 2.34845e-25)
(-0.0042198 0.0529093 3.39483e-24)
(-0.201497 0.0686091 1.45326e-24)
(0.07331 -0.0688648 2.73536e-24)
(-0.0668417 -0.469263 0)
(0.0061636 0.0118743 -2.56505e-24)
(0.0497309 0.0650929 -5.46338e-24)
(-0.053685 -0.114439 0)
(-0.0653475 0.0606972 0)