/*--------------------------------*- C++ -*----------------------------------*\
| =========                 |                                                 |
| \\      /  F ield         | OpenFOAM Extend Project: Open source CFD        |
|  \\    /   O peration     | Version:  1.6-ext                               |
|   \\  /    A nd           | Web:      www.extend-project.de                 |
|    \\/     M anipulation  |                                                 |
\*---------------------------------------------------------------------------*/
FoamFile
{
    version     2.0;
    format      ascii;
    class       volScalarField;
    location    "0";
    object      yPlus;
}
// * * * * * * * * * * * * * * * * * * * * * * * * * * * * * * * * * * * * * //

dimensions      [0 0 0 0 0 0 0];

internalField   uniform 0;

boundaryField
{
    movingWall
    {
        type            calculated;
        value           nonuniform List<scalar> 10(8.77106 8.77106 8.77106 8.77106 8.77106 8.77106 8.77106 8.77106 8.77106 8.77106);
    }
    left
    {
        type            calculated;
        value           nonuniform List<scalar> 10(8.77106 8.77106 8.77106 8.77106 8.77106 8.77106 8.77106 8.77106 8.77106 8.77106);
    }
    right
    {
        type            calculated;
        value           nonuniform List<scalar> 10(8.77106 8.77106 8.77106 8.77106 8.77106 8.77106 8.77106 8.77106 8.77106 8.77106);
    }
    bottom
    {
        type            calculated;
        value           nonuniform List<scalar> 10(8.77106 8.77106 8.77106 8.77106 8.77106 8.77106 8.77106 8.77106 8.77106 8.77106);
    }
    frontAndBack
    {
        type            empty;
    }
}


// ************************************************************************* //
