/*--------------------------------*- C++ -*----------------------------------*\
| =========                 |                                                 |
| \\      /  F ield         | OpenFOAM Extend Project: Open source CFD        |
|  \\    /   O peration     | Version:  1.6-ext                               |
|   \\  /    A nd           | Web:      www.extend-project.de                 |
|    \\/     M anipulation  |                                                 |
\*---------------------------------------------------------------------------*/
FoamFile
{
    version     2.0;
    format      ascii;
    class       volScalarField;
    location    "1000";
    object      T;
}
// * * * * * * * * * * * * * * * * * * * * * * * * * * * * * * * * * * * * * //

dimensions      [0 0 0 1 0 0 0];

internalField   nonuniform List<scalar> 
100
(
462.249
462.776
463.327
463.894
464.472
470.343
470.932
471.522
472.113
472.704
462.208
462.753
463.312
463.883
464.463
470.342
470.931
471.522
472.113
472.704
462.151
462.714
463.285
463.862
464.446
470.338
470.929
471.52
472.112
472.704
462.09
462.669
463.25
463.835
464.423
470.334
470.926
471.518
472.111
472.704
462.029
462.621
463.213
463.805
464.397
470.329
470.922
471.516
472.109
472.703
461.969
462.573
463.175
463.774
464.371
470.324
470.919
471.513
472.108
472.703
461.913
462.529
463.14
463.745
464.346
470.319
470.915
471.511
472.107
472.702
461.863
462.49
463.109
463.72
464.325
470.315
470.912
471.509
472.106
472.702
461.822
462.461
463.087
463.703
464.31
470.312
470.91
471.508
472.105
472.702
461.796
462.444
463.075
463.693
464.302
470.31
470.909
471.507
472.105
472.702
)
;

boundaryField
{
    topAndBottom
    {
        type            zeroGradient;
    }
    left
    {
        type            chtRcTemperature;
        K               k;
        radiation       0;
        remoteField     T;
        value           nonuniform List<scalar> 10(462.006 461.943 461.872 461.801 461.732 461.664 461.601 461.544 461.495 461.46);
    }
    right
    {
        type            fixedValue;
        value           uniform 473;
    }
    frontAndBack
    {
        type            empty;
    }
}


// ************************************************************************* //
