/*--------------------------------*- C++ -*----------------------------------*\
| =========                 |                                                 |
| \\      /  F ield         | OpenFOAM Extend Project: Open source CFD        |
|  \\    /   O peration     | Version:  1.6-ext                               |
|   \\  /    A nd           | Web:      www.extend-project.de                 |
|    \\/     M anipulation  |                                                 |
\*---------------------------------------------------------------------------*/
FoamFile
{
    version     2.0;
    format      ascii;
    class       volScalarField;
    location    "1000";
    object      T;
}
// * * * * * * * * * * * * * * * * * * * * * * * * * * * * * * * * * * * * * //

dimensions      [0 0 0 1 0 0 0];

internalField   nonuniform List<scalar> 
100
(
453.995
455.169
456.275
457.337
458.37
468.478
469.485
470.491
471.495
472.498
454.095
455.236
456.319
457.367
458.393
468.481
469.488
470.492
471.496
472.499
454.306
455.362
456.397
457.419
458.432
468.487
469.491
470.494
471.497
472.499
454.55
455.507
456.488
457.48
458.479
468.495
469.496
470.497
471.499
472.5
454.761
455.63
456.567
457.536
458.522
468.502
469.501
470.501
471.5
472.5
454.822
455.686
456.613
457.573
458.555
468.508
469.505
470.503
471.502
472.501
454.773
455.681
456.624
457.59
458.573
468.513
469.509
470.506
471.503
472.501
454.675
455.64
456.612
457.592
458.579
468.516
469.511
470.508
471.504
472.501
454.574
455.593
456.593
457.586
458.578
468.518
469.513
470.509
471.505
472.502
454.522
455.565
456.579
457.581
458.577
468.519
469.514
470.509
471.505
472.502
)
;

boundaryField
{
    topAndBottom
    {
        type            zeroGradient;
    }
    left
    {
        type            chtRcTemperature;
        K               k;
        radiation       0;
        remoteField     T;
        value           nonuniform List<scalar> 10(453.358 453.47 453.762 454.087 454.402 454.445 454.343 454.194 454.041 453.975);
    }
    right
    {
        type            fixedValue;
        value           uniform 473;
    }
    frontAndBack
    {
        type            empty;
    }
}


// ************************************************************************* //
