/*--------------------------------*- C++ -*----------------------------------*\
| =========                 |                                                 |
| \\      /  F ield         | OpenFOAM Extend Project: Open source CFD        |
|  \\    /   O peration     | Version:  1.6-ext                               |
|   \\  /    A nd           | Web:      www.extend-project.de                 |
|    \\/     M anipulation  |                                                 |
\*---------------------------------------------------------------------------*/
FoamFile
{
    version     2.0;
    format      ascii;
    class       volScalarField;
    location    "1000";
    object      nut;
}
// * * * * * * * * * * * * * * * * * * * * * * * * * * * * * * * * * * * * * //

dimensions      [0 2 -1 0 0 0 0];

internalField   nonuniform List<scalar> 
100
(
1.63703e-05
1.65315e-05
1.63667e-05
1.60753e-05
1.61711e-05
1.63841e-05
1.62916e-05
1.54309e-05
1.39399e-05
1.22679e-05
1.82802e-05
3.60213e-05
4.64015e-05
5.67735e-05
6.18821e-05
6.11371e-05
5.36747e-05
3.76967e-05
2.09203e-05
1.13898e-05
1.98614e-05
5.45464e-05
6.59422e-05
6.73666e-05
6.2783e-05
5.31026e-05
4.02628e-05
2.77116e-05
1.86203e-05
1.15386e-05
2.14746e-05
6.31133e-05
6.05778e-05
5.40358e-05
4.63347e-05
3.79091e-05
3.08515e-05
2.65643e-05
2.3841e-05
1.47776e-05
2.1825e-05
6.33754e-05
5.50364e-05
4.54166e-05
3.81398e-05
3.31633e-05
3.10416e-05
3.08843e-05
2.85929e-05
1.60136e-05
2.10565e-05
6.20666e-05
5.30634e-05
4.2937e-05
3.66368e-05
3.38164e-05
3.39834e-05
3.49631e-05
3.2501e-05
1.68392e-05
1.99197e-05
5.93717e-05
5.27392e-05
4.39997e-05
3.87935e-05
3.70092e-05
3.8055e-05
3.94814e-05
3.54351e-05
1.75447e-05
1.93683e-05
5.64908e-05
5.55459e-05
4.95228e-05
4.54953e-05
4.45083e-05
4.57248e-05
4.53878e-05
3.76971e-05
1.82416e-05
2.041e-05
5.73206e-05
6.26935e-05
6.00202e-05
5.80323e-05
5.74256e-05
5.78282e-05
5.07239e-05
3.68306e-05
1.88832e-05
1.75919e-05
2.02349e-05
2.14558e-05
2.1862e-05
2.19131e-05
2.17241e-05
2.12025e-05
2.04609e-05
1.9608e-05
1.84112e-05
)
;

boundaryField
{
    movingWall
    {
        type            nutWallFunction;
        Cmu             0.09;
        kappa           0.41;
        E               9.8;
        value           uniform 0;
    }
    left
    {
        type            nutWallFunction;
        Cmu             0.09;
        kappa           0.41;
        E               9.8;
        value           uniform 0;
    }
    right
    {
        type            nutWallFunction;
        Cmu             0.09;
        kappa           0.41;
        E               9.8;
        value           uniform 0;
    }
    bottom
    {
        type            nutWallFunction;
        Cmu             0.09;
        kappa           0.41;
        E               9.8;
        value           uniform 0;
    }
    frontAndBack
    {
        type            empty;
    }
}


// ************************************************************************* //
