/*--------------------------------*- C++ -*----------------------------------*\
| =========                 |                                                 |
| \\      /  F ield         | OpenFOAM Extend Project: Open source CFD        |
|  \\    /   O peration     | Version:  1.6-ext                               |
|   \\  /    A nd           | Web:      www.extend-project.de                 |
|    \\/     M anipulation  |                                                 |
\*---------------------------------------------------------------------------*/
FoamFile
{
    version     2.0;
    format      ascii;
    class       surfaceScalarField;
    location    "1000";
    object      phi;
}
// * * * * * * * * * * * * * * * * * * * * * * * * * * * * * * * * * * * * * //

dimensions      [0 3 -1 0 0 0 0];

internalField   nonuniform List<scalar> 
180
(
4.35362e-06
-4.35362e-06
6.07696e-06
-1.72334e-06
6.72523e-06
-6.48268e-07
6.73385e-06
-8.62168e-09
6.29504e-06
4.38806e-07
5.60636e-06
6.88682e-07
4.82535e-06
7.81005e-07
3.98724e-06
8.38118e-07
2.83934e-06
1.14789e-06
2.83934e-06
2.1444e-06
-6.49802e-06
2.9697e-06
-2.54864e-06
2.97179e-06
-6.50364e-07
2.42236e-06
5.40815e-07
1.6032e-06
1.25796e-06
7.28971e-07
1.56291e-06
2.6065e-09
1.50737e-06
-3.82018e-07
1.22274e-06
-3.14936e-07
1.08081e-06
2.5244e-06
1.07844e-07
-6.60586e-06
-4.78982e-07
-1.96181e-06
-1.54839e-06
4.19041e-07
-2.72474e-06
1.71717e-06
-3.79408e-06
2.3273e-06
-4.62972e-06
2.39856e-06
-5.00555e-06
1.8832e-06
-4.65427e-06
8.71461e-07
-3.26866e-06
-3.04798e-07
-7.44254e-07
-1.55432e-06
-5.05154e-06
-3.34931e-06
-1.66817e-07
-4.8771e-06
1.94683e-06
-6.12914e-06
2.96921e-06
-7.15754e-06
3.3557e-06
-7.76452e-06
3.00554e-06
-7.69258e-06
1.81125e-06
-6.6271e-06
-1.94012e-07
-4.36709e-06
-2.56481e-06
-5.11134e-06
-1.96564e-06
-3.08591e-06
-3.89787e-06
1.76541e-06
-5.36755e-06
3.41651e-06
-6.51213e-06
4.11379e-06
-7.26263e-06
4.1062e-06
-7.47629e-06
3.2192e-06
-6.98309e-06
1.31805e-06
-5.66544e-06
-1.51166e-06
-3.48207e-06
-4.74819e-06
-8.59341e-06
-1.58228e-06
-1.50362e-06
-3.0198e-06
3.20293e-06
-4.16489e-06
4.56159e-06
-4.9631e-06
4.912e-06
-5.39337e-06
4.53647e-06
-5.41832e-06
3.24415e-06
-4.99333e-06
8.93053e-07
-4.11071e-06
-2.39428e-06
-2.51649e-06
-6.34241e-06
-1.11099e-05
-1.2113e-06
-2.9232e-07
-1.89509e-06
3.88672e-06
-2.31168e-06
4.97819e-06
-2.46165e-06
5.06197e-06
-2.38322e-06
4.45804e-06
-2.18576e-06
3.04669e-06
-2.05733e-06
7.64619e-07
-1.92106e-06
-2.53055e-06
-1.31202e-06
-6.95144e-06
-1.24219e-05
-1.36818e-06
1.07586e-06
-1.13112e-06
3.64966e-06
-5.63967e-07
4.41104e-06
2.04565e-07
4.29344e-06
9.94218e-07
3.66838e-06
1.51847e-06
2.52245e-06
1.49365e-06
7.89438e-07
1.00097e-06
-2.03788e-06
3.34869e-07
-6.28534e-06
-1.20871e-05
-1.84246e-06
2.91832e-06
-6.23844e-07
2.43104e-06
1.19804e-06
2.58915e-06
2.95339e-06
2.53809e-06
4.40714e-06
2.21464e-06
5.31805e-06
1.61154e-06
5.57411e-06
5.33373e-07
4.858e-06
-1.32177e-06
2.80505e-06
-4.23238e-06
-9.282e-06
2.91832e-06
5.34936e-06
7.93851e-06
1.04766e-05
1.26912e-05
1.43028e-05
1.48362e-05
1.35144e-05
9.282e-06
)
;

boundaryField
{
    movingWall
    {
        type            calculated;
        value           nonuniform List<scalar> 10(0 0 -3.38813e-21 -3.38813e-21 0 0 -3.38813e-21 -1.69407e-21 0 0);
    }
    left
    {
        type            calculated;
        value           nonuniform List<scalar> 10(0 4.23516e-22 0 0 1.69407e-21 -3.38813e-21 0 6.77626e-21 0 -3.38813e-21);
    }
    right
    {
        type            calculated;
        value           nonuniform List<scalar> 10(-8.47033e-22 0 0 3.38813e-21 0 0 3.38813e-21 6.77626e-21 6.77626e-21 0);
    }
    bottom
    {
        type            calculated;
        value           uniform 0;
    }
    frontAndBack
    {
        type            empty;
    }
}


// ************************************************************************* //
