/*--------------------------------*- C++ -*----------------------------------*\
| =========                 |                                                 |
| \\      /  F ield         | OpenFOAM Extend Project: Open source CFD        |
|  \\    /   O peration     | Version:  1.6-ext                               |
|   \\  /    A nd           | Web:      www.extend-project.de                 |
|    \\/     M anipulation  |                                                 |
\*---------------------------------------------------------------------------*/
FoamFile
{
    version     2.0;
    format      ascii;
    class       volScalarField;
    location    "1000";
    object      T;
}
// * * * * * * * * * * * * * * * * * * * * * * * * * * * * * * * * * * * * * //

dimensions      [0 0 0 1 0 0 0];

internalField   nonuniform List<scalar> 
100
(
303.64
310.184
314.049
317.038
319.818
322.627
325.604
328.862
333.064
346.694
303.206
313.215
316.684
319.058
321.784
325.145
329.257
334.547
340.603
355.571
306.395
321.112
324.655
327.09
330.089
334.215
339.104
344.352
349.676
357.885
309.738
325.521
329.053
330.74
332.519
334.019
334.585
333.945
333.076
337.935
310.15
326.112
328.929
329.48
329.119
327.645
325.039
322.266
322.729
329.119
308.628
325.039
327.677
327.264
325.462
322.534
319.152
316.926
316.937
323.811
306.947
323.764
326.667
326.051
323.892
320.773
317.503
315.331
313.427
319.6
306.529
322.267
325.629
325.451
323.623
321.254
319.056
316.044
311.44
315.678
305.269
318.893
322.697
322.999
321.989
320.466
318.657
315.019
309.744
311.54
294.645
302.22
306.122
307.831
308.226
307.753
306.465
304.817
303.126
306.216
)
;

boundaryField
{
    movingWall
    {
        type            fixedValue;
        value           uniform 273;
    }
    left
    {
        type            fixedValue;
        value           uniform 273;
    }
    right
    {
        type            chtRcTemperature;
        K               kappaEff;
        radiation       1;
        remoteField     T;
        value           nonuniform List<scalar> 10(424.099 424.119 424.072 423.892 423.744 423.617 423.507 423.412 423.335 423.278);
    }
    bottom
    {
        type            extendedWallHeatTransfer;
        K               kappaEff;
        radiation       1;
        Tinf            293;
        hc              20;
        alpha           1;

        radiationSources
        (
            source1
            {
                type            viewFactor;
                Tinf            350;
                F               uniform 0.01;
                epsilon         0.5;
            }
            source2
            {
                type            viewFactor;
                Tinf            350;
                F               uniform 0.15;
                epsilon         0.7;
            }
            source3
            {
                type            constantFlux;
                q               uniform -100;
            }
            source4
            {
                type            pointSource;
                q               uniform -50;
                qmax            -100;
                alpha           0.5;
                direction       (0 1 0);
            }
        );

        value           nonuniform List<scalar> 10(333.357 335.741 337.226 338.415 339.447 340.473 341.609 342.937 344.61 349.156);
    }
    frontAndBack
    {
        type            empty;
    }
}


// ************************************************************************* //
