/*--------------------------------*- C++ -*----------------------------------*\
| =========                 |                                                 |
| \\      /  F ield         | OpenFOAM Extend Project: Open source CFD        |
|  \\    /   O peration     | Version:  1.6-ext                               |
|   \\  /    A nd           | Web:      www.extend-project.de                 |
|    \\/     M anipulation  |                                                 |
\*---------------------------------------------------------------------------*/
FoamFile
{
    version     2.0;
    format      ascii;
    class       volScalarField;
    location    "1000";
    object      T;
}
// * * * * * * * * * * * * * * * * * * * * * * * * * * * * * * * * * * * * * //

dimensions      [0 0 0 1 0 0 0];

internalField   nonuniform List<scalar> 
200
(
439.638
440.827
442.013
443.195
444.374
445.551
446.725
447.898
449.069
450.238
461.918
463.086
464.253
465.42
466.586
467.753
468.919
470.085
471.251
472.417
439.655
440.843
442.026
443.207
444.384
445.56
446.733
447.905
449.075
450.244
461.92
463.087
464.254
465.421
466.587
467.753
468.919
470.085
471.251
472.417
439.691
440.874
442.053
443.229
444.404
445.576
446.747
447.917
449.086
450.254
461.923
463.09
464.256
465.423
466.589
467.754
468.92
470.086
471.252
472.417
439.744
440.917
442.09
443.26
444.43
445.599
446.767
447.934
449.101
450.268
461.928
463.094
464.26
465.425
466.591
467.756
468.921
470.087
471.252
472.417
439.804
440.968
442.132
443.296
444.46
445.624
446.789
447.954
449.118
450.283
461.933
463.098
464.263
465.428
466.593
467.758
468.923
470.088
471.253
472.418
439.867
441.019
442.173
443.33
444.489
445.649
446.81
447.972
449.135
450.299
461.939
463.103
464.267
465.431
466.595
467.76
468.924
470.089
471.253
472.418
439.917
441.058
442.205
443.357
444.512
445.669
446.828
447.989
449.15
450.312
461.943
463.107
464.27
465.434
466.598
467.762
468.926
470.09
471.254
472.418
439.924
441.07
442.219
443.371
444.526
445.683
446.841
448
449.161
450.322
461.947
463.11
464.273
465.436
466.6
467.763
468.927
470.09
471.254
472.418
439.915
441.068
442.222
443.377
444.533
445.69
446.848
448.007
449.168
450.329
461.95
463.112
464.275
465.438
466.601
467.764
468.928
470.091
471.255
472.418
439.903
441.062
442.22
443.377
444.535
445.693
446.851
448.011
449.171
450.332
461.951
463.113
464.276
465.439
466.602
467.765
468.928
470.091
471.255
472.418
)
;

boundaryField
{
    topAndBottom
    {
        type            zeroGradient;
    }
    left
    {
        type            chtRcTemperature;
        K               k;
        radiation       0;
        remoteField     T;
        value           nonuniform List<scalar> 10(439.041 439.059 439.098 439.156 439.222 439.293 439.352 439.353 439.339 439.322);
    }
    right
    {
        type            fixedValue;
        value           uniform 473;
    }
    frontAndBack
    {
        type            empty;
    }
}


// ************************************************************************* //
