/*--------------------------------*- C++ -*----------------------------------*\
| =========                 |                                                 |
| \\      /  F ield         | OpenFOAM Extend Project: Open source CFD        |
|  \\    /   O peration     | Version:  1.6-ext                               |
|   \\  /    A nd           | Web:      www.extend-project.de                 |
|    \\/     M anipulation  |                                                 |
\*---------------------------------------------------------------------------*/
FoamFile
{
    version     2.0;
    format      ascii;
    class       volScalarField;
    location    "1000";
    object      T;
}
// * * * * * * * * * * * * * * * * * * * * * * * * * * * * * * * * * * * * * //

dimensions      [0 0 0 1 0 0 0];

internalField   nonuniform List<scalar> 
200
(
438.502
439.736
440.965
442.19
443.412
444.63
445.845
447.057
448.268
449.477
461.548
462.755
463.961
465.167
466.372
467.577
468.783
469.988
471.193
472.398
438.522
439.755
440.983
442.206
443.425
444.641
445.854
447.066
448.275
449.484
461.55
462.756
463.962
465.168
466.373
467.578
468.783
469.988
471.193
472.398
438.573
439.799
441.019
442.236
443.45
444.662
445.872
447.081
448.289
449.496
461.554
462.759
463.965
465.17
466.375
467.579
468.784
469.989
471.193
472.398
438.651
439.861
441.07
442.277
443.484
444.69
445.896
447.102
448.307
449.512
461.559
462.763
463.968
465.172
466.377
467.581
468.785
469.99
471.194
472.398
438.737
439.93
441.125
442.322
443.52
444.72
445.921
447.123
448.326
449.529
461.564
462.768
463.972
465.175
466.379
467.583
468.787
469.99
471.194
472.398
438.816
439.991
441.173
442.36
443.551
444.746
445.943
447.142
448.342
449.544
461.569
462.772
463.975
465.178
466.381
467.585
468.788
469.991
471.195
472.398
438.863
440.025
441.199
442.381
443.569
444.762
445.957
447.154
448.354
449.554
461.573
462.775
463.978
465.181
466.383
467.586
468.789
469.992
471.195
472.398
438.832
440.008
441.191
442.379
443.571
444.765
445.962
447.16
448.36
449.56
461.576
462.778
463.98
465.182
466.385
467.587
468.79
469.993
471.196
472.399
438.76
439.961
441.162
442.362
443.561
444.761
445.961
447.161
448.361
449.562
461.578
462.779
463.981
465.184
466.386
467.588
468.791
469.993
471.196
472.399
438.691
439.919
441.135
442.346
443.552
444.756
445.958
447.16
448.361
449.563
461.578
462.78
463.982
465.184
466.386
467.589
468.791
469.994
471.196
472.399
)
;

boundaryField
{
    topAndBottom
    {
        type            zeroGradient;
    }
    left
    {
        type            chtRcTemperature;
        K               k;
        radiation       0;
        remoteField     T;
        value           nonuniform List<scalar> 10(437.882 437.901 437.957 438.045 438.142 438.233 438.293 438.25 438.159 438.069);
    }
    right
    {
        type            fixedValue;
        value           uniform 473;
    }
    frontAndBack
    {
        type            empty;
    }
}


// ************************************************************************* //
