/*--------------------------------*- C++ -*----------------------------------*\
| =========                 |                                                 |
| \\      /  F ield         | OpenFOAM Extend Project: Open source CFD        |
|  \\    /   O peration     | Version:  1.6-ext                               |
|   \\  /    A nd           | Web:      www.extend-project.de                 |
|    \\/     M anipulation  |                                                 |
\*---------------------------------------------------------------------------*/
FoamFile
{
    version     2.0;
    format      ascii;
    class       volScalarField;
    location    "1000";
    object      G;
}
// * * * * * * * * * * * * * * * * * * * * * * * * * * * * * * * * * * * * * //

dimensions      [1 0 -3 0 0 0 0];

internalField   nonuniform List<scalar> 
100
(
3524.17
3527.73
3531.4
3535.15
3538.97
3542.85
3546.79
3550.78
3554.82
3558.9
3524.74
3528.26
3531.89
3535.6
3539.39
3543.24
3547.15
3551.12
3555.12
3559.15
3525.18
3528.69
3532.29
3535.98
3539.74
3543.58
3547.47
3551.41
3555.4
3559.41
3525.52
3529.01
3532.6
3536.28
3540.03
3543.85
3547.73
3551.66
3555.65
3559.67
3525.75
3529.25
3532.83
3536.5
3540.25
3544.06
3547.94
3551.87
3555.86
3559.89
3525.89
3529.39
3532.98
3536.65
3540.4
3544.21
3548.09
3552.03
3556.02
3560.07
3525.93
3529.44
3533.03
3536.72
3540.48
3544.3
3548.19
3552.13
3556.12
3560.17
3525.87
3529.39
3533.01
3536.72
3540.49
3544.33
3548.23
3552.17
3556.17
3560.21
3525.68
3529.24
3532.9
3536.64
3540.45
3544.31
3548.21
3552.17
3556.17
3560.22
3525.33
3528.98
3532.71
3536.51
3540.35
3544.23
3548.15
3552.12
3556.13
3560.19
)
;

boundaryField
{
    movingWall
    {
        type            MarshakRadiation;
        T               T;
        emissivity      1;
        value           nonuniform List<scalar> 10(3525.04 3528.8 3532.59 3536.41 3540.27 3544.17 3548.1 3552.07 3556.09 3560.19);
    }
    left
    {
        type            MarshakRadiation;
        T               T;
        emissivity      1;
        value           nonuniform List<scalar> 10(3522.47 3523.04 3523.48 3523.82 3524.06 3524.19 3524.23 3524.17 3523.98 3523.63);
    }
    right
    {
        type            MarshakRadiation;
        T               T;
        emissivity      1;
        value           nonuniform List<scalar> 10(3560.9 3561.15 3561.42 3561.69 3561.93 3562.13 3562.22 3562.26 3562.25 3562.22);
    }
    bottom
    {
        type            MarshakRadiation;
        T               T;
        emissivity      1;
        value           nonuniform List<scalar> 10(3523.8 3527.42 3531.12 3534.89 3538.72 3542.62 3546.58 3550.59 3554.65 3558.82);
    }
    frontAndBack
    {
        type            empty;
    }
}


// ************************************************************************* //
