/*--------------------------------*- C++ -*----------------------------------*\
| =========                 |                                                 |
| \\      /  F ield         | OpenFOAM Extend Project: Open source CFD        |
|  \\    /   O peration     | Version:  1.6-ext                               |
|   \\  /    A nd           | Web:      www.extend-project.de                 |
|    \\/     M anipulation  |                                                 |
\*---------------------------------------------------------------------------*/
FoamFile
{
    version     2.0;
    format      ascii;
    class       volScalarField;
    location    "1000";
    object      G;
}
// * * * * * * * * * * * * * * * * * * * * * * * * * * * * * * * * * * * * * //

dimensions      [1 0 -3 0 0 0 0];

internalField   nonuniform List<scalar> 
100
(
3521.37
3524.92
3528.54
3532.24
3535.99
3539.78
3543.62
3547.5
3551.42
3555.36
3521.9
3525.4
3528.99
3532.65
3536.37
3540.14
3543.96
3547.81
3551.68
3555.56
3522.32
3525.81
3529.37
3533.01
3536.71
3540.46
3544.25
3548.09
3551.95
3555.81
3522.65
3526.12
3529.68
3533.3
3536.99
3540.73
3544.51
3548.34
3552.2
3556.08
3522.89
3526.36
3529.92
3533.54
3537.22
3540.95
3544.73
3548.56
3552.43
3556.33
3523.05
3526.53
3530.08
3533.71
3537.39
3541.13
3544.91
3548.74
3552.61
3556.54
3523.13
3526.61
3530.18
3533.82
3537.51
3541.26
3545.05
3548.88
3552.75
3556.67
3523.11
3526.62
3530.21
3533.87
3537.58
3541.34
3545.14
3548.97
3552.84
3556.74
3522.99
3526.53
3530.17
3533.87
3537.61
3541.39
3545.19
3549.03
3552.89
3556.77
3522.71
3526.35
3530.07
3533.83
3537.6
3541.4
3545.22
3549.06
3552.92
3556.81
)
;

boundaryField
{
    movingWall
    {
        type            MarshakRadiation;
        T               T;
        emissivity      1;
        value           nonuniform List<scalar> 10(3522.45 3526.23 3530 3533.79 3537.59 3541.4 3545.22 3549.06 3552.93 3556.87);
    }
    left
    {
        type            MarshakRadiation;
        T               T;
        emissivity      1;
        value           nonuniform List<scalar> 10(3519.68 3520.21 3520.63 3520.95 3521.2 3521.36 3521.43 3521.42 3521.29 3521.02);
    }
    right
    {
        type            MarshakRadiation;
        T               T;
        emissivity      1;
        value           nonuniform List<scalar> 10(3557.27 3557.48 3557.74 3558.03 3558.3 3558.54 3558.67 3558.7 3558.7 3558.71);
    }
    bottom
    {
        type            MarshakRadiation;
        T               T;
        emissivity      1;
        value           nonuniform List<scalar> 10(3521.03 3524.63 3528.29 3532 3535.77 3539.58 3543.44 3547.33 3551.27 3555.31);
    }
    frontAndBack
    {
        type            empty;
    }
}


// ************************************************************************* //
