/*--------------------------------*- C++ -*----------------------------------*\
| =========                 |                                                 |
| \\      /  F ield         | OpenFOAM Extend Project: Open source CFD        |
|  \\    /   O peration     | Version:  1.6-ext                               |
|   \\  /    A nd           | Web:      www.extend-project.de                 |
|    \\/     M anipulation  |                                                 |
\*---------------------------------------------------------------------------*/
FoamFile
{
    version     2.0;
    format      ascii;
    class       volScalarField;
    location    "1000";
    object      kappaEff;
}
// * * * * * * * * * * * * * * * * * * * * * * * * * * * * * * * * * * * * * //

dimensions      [1 1 -3 -1 0 0 0];

internalField   nonuniform List<scalar> 
100
(
0.047243
0.0473021
0.0468053
0.0461927
0.0457003
0.0452593
0.0447981
0.0442519
0.0435746
0.0426146
0.0486714
0.0612628
0.0648854
0.0687122
0.0710344
0.071265
0.0690464
0.0643877
0.057789
0.0438419
0.0497443
0.0740341
0.0791526
0.0872346
0.0904821
0.0891093
0.0834244
0.0737902
0.0630135
0.0439804
0.0507326
0.0850318
0.0898378
0.0975471
0.10045
0.0971061
0.0881761
0.0743293
0.0610111
0.0434731
0.0516446
0.0859293
0.0906777
0.095838
0.0953556
0.0892578
0.0783871
0.0654675
0.0545484
0.042973
0.0524402
0.0844207
0.0825853
0.0782193
0.0732634
0.0667598
0.0599544
0.0543392
0.0501673
0.042951
0.0531164
0.0799438
0.0728388
0.0673101
0.0636315
0.0610428
0.0598762
0.0601317
0.0593507
0.0504656
0.053738
0.0796951
0.0768439
0.0756195
0.0755826
0.0753718
0.0743703
0.0721909
0.0641713
0.052981
0.057265
0.0868151
0.0931537
0.100146
0.107205
0.11259
0.115114
0.0922404
0.0671097
0.0546007
0.0535932
0.0558423
0.0575496
0.0593943
0.0611839
0.0624405
0.062093
0.0606335
0.0587607
0.0563476
)
;

boundaryField
{
    movingWall
    {
        type            zeroGradient;
    }
    left
    {
        type            zeroGradient;
    }
    right
    {
        type            chtRcThermalDiffusivityResistance;
        conductivity    uniform 50;
        remoteField     k;
        value           nonuniform List<scalar> 10(0.0519589 0.0528239 0.0521201 0.0501859 0.0481036 0.0456951 0.0497561 0.0546825 0.0583997 0.0622939);
    }
    bottom
    {
        type            zeroGradient;
    }
    frontAndBack
    {
        type            empty;
    }
}


// ************************************************************************* //
