/*--------------------------------*- C++ -*----------------------------------*\
| =========                 |                                                 |
| \\      /  F ield         | OpenFOAM Extend Project: Open source CFD        |
|  \\    /   O peration     | Version:  1.6-ext                               |
|   \\  /    A nd           | Web:      www.extend-project.de                 |
|    \\/     M anipulation  |                                                 |
\*---------------------------------------------------------------------------*/
FoamFile
{
    version     2.0;
    format      ascii;
    class       volScalarField;
    location    "1000";
    object      nut;
}
// * * * * * * * * * * * * * * * * * * * * * * * * * * * * * * * * * * * * * //

dimensions      [0 2 -1 0 0 0 0];

internalField   nonuniform List<scalar> 
100
(
1.21539e-05
1.21958e-05
1.18439e-05
1.141e-05
1.10612e-05
1.07488e-05
1.04221e-05
1.00353e-05
9.55549e-06
8.87546e-06
1.31657e-05
2.20847e-05
2.46507e-05
2.73613e-05
2.90061e-05
2.91695e-05
2.7598e-05
2.42981e-05
1.9624e-05
9.74484e-06
1.39257e-05
3.1131e-05
3.47565e-05
4.04813e-05
4.27817e-05
4.18092e-05
3.77824e-05
3.09582e-05
2.33247e-05
9.84295e-06
1.46257e-05
3.8921e-05
4.23253e-05
4.7786e-05
4.98424e-05
4.74737e-05
4.11482e-05
3.13401e-05
2.19063e-05
9.48357e-06
1.52718e-05
3.95567e-05
4.29201e-05
4.65754e-05
4.62337e-05
4.19144e-05
3.42143e-05
2.50629e-05
1.73286e-05
9.12936e-06
1.58353e-05
3.84881e-05
3.71881e-05
3.40955e-05
3.0585e-05
2.59783e-05
2.11578e-05
1.71804e-05
1.42253e-05
9.11376e-06
1.63143e-05
3.5317e-05
3.02843e-05
2.63681e-05
2.37625e-05
2.19288e-05
2.11024e-05
2.12834e-05
2.07302e-05
1.44366e-05
1.67545e-05
3.51409e-05
3.31212e-05
3.2254e-05
3.22278e-05
3.20785e-05
3.13691e-05
2.98254e-05
2.41448e-05
1.62184e-05
1.92529e-05
4.01842e-05
4.4674e-05
4.96268e-05
5.46272e-05
5.84416e-05
6.02291e-05
4.40271e-05
2.62262e-05
1.73657e-05
1.6652e-05
1.82451e-05
1.94544e-05
2.07611e-05
2.20288e-05
2.29189e-05
2.26727e-05
2.16389e-05
2.03123e-05
1.8603e-05
)
;

boundaryField
{
    movingWall
    {
        type            nutWallFunction;
        Cmu             0.09;
        kappa           0.41;
        E               9.8;
        value           uniform 0;
    }
    left
    {
        type            nutWallFunction;
        Cmu             0.09;
        kappa           0.41;
        E               9.8;
        value           uniform 0;
    }
    right
    {
        type            calculated;
        value           nonuniform List<scalar> 10(8.87546e-06 9.74484e-06 9.84295e-06 9.48357e-06 9.12936e-06 9.11376e-06 1.44366e-05 1.62184e-05 1.73657e-05 1.8603e-05);
    }
    bottom
    {
        type            nutWallFunction;
        Cmu             0.09;
        kappa           0.41;
        E               9.8;
        value           uniform 0;
    }
    frontAndBack
    {
        type            empty;
    }
}


// ************************************************************************* //
