/*--------------------------------*- C++ -*----------------------------------*\
| =========                 |                                                 |
| \\      /  F ield         | OpenFOAM Extend Project: Open source CFD        |
|  \\    /   O peration     | Version:  1.6-ext                               |
|   \\  /    A nd           | Web:      www.extend-project.de                 |
|    \\/     M anipulation  |                                                 |
\*---------------------------------------------------------------------------*/
FoamFile
{
    version     2.0;
    format      ascii;
    class       volScalarField;
    location    "1000";
    object      nut;
}
// * * * * * * * * * * * * * * * * * * * * * * * * * * * * * * * * * * * * * //

dimensions      [0 2 -1 0 0 0 0];

internalField   nonuniform List<scalar> 
100
(
1.23735e-05
1.24879e-05
1.21865e-05
1.17842e-05
1.14432e-05
1.11489e-05
1.08466e-05
1.04779e-05
9.97758e-06
9.23339e-06
1.34207e-05
2.33496e-05
2.68241e-05
3.01069e-05
3.20705e-05
3.24287e-05
3.08793e-05
2.72432e-05
2.13338e-05
1.01939e-05
1.42054e-05
3.28645e-05
3.83861e-05
4.50649e-05
4.8004e-05
4.71189e-05
4.27089e-05
3.47665e-05
2.4138e-05
1.00825e-05
1.49341e-05
4.08142e-05
4.57133e-05
5.15818e-05
5.36386e-05
5.07367e-05
4.34109e-05
3.25509e-05
2.05953e-05
9.67086e-06
1.55857e-05
4.21014e-05
4.50324e-05
4.62287e-05
4.42506e-05
3.905e-05
3.13165e-05
2.29561e-05
1.59219e-05
9.43563e-06
1.60206e-05
4.05763e-05
3.69593e-05
3.27426e-05
2.90966e-05
2.49349e-05
2.10097e-05
1.84008e-05
1.71033e-05
1.31257e-05
1.61467e-05
3.73622e-05
3.23257e-05
2.81755e-05
2.55575e-05
2.37069e-05
2.29983e-05
2.37296e-05
2.45156e-05
1.56968e-05
1.62156e-05
3.54142e-05
3.33844e-05
3.20987e-05
3.18144e-05
3.17431e-05
3.17703e-05
3.18949e-05
2.76391e-05
1.67346e-05
1.86204e-05
3.94054e-05
4.32311e-05
4.6848e-05
5.01552e-05
5.2302e-05
5.35269e-05
4.62238e-05
2.95193e-05
1.76463e-05
1.61739e-05
1.76141e-05
1.86664e-05
1.977e-05
2.08304e-05
2.15977e-05
2.15635e-05
2.07174e-05
1.96325e-05
1.82383e-05
)
;

boundaryField
{
    movingWall
    {
        type            nutWallFunction;
        Cmu             0.09;
        kappa           0.41;
        E               9.8;
        value           uniform 0;
    }
    left
    {
        type            nutWallFunction;
        Cmu             0.09;
        kappa           0.41;
        E               9.8;
        value           uniform 0;
    }
    right
    {
        type            nutWallFunction;
        Cmu             0.09;
        kappa           0.41;
        E               9.8;
        value           uniform 0;
    }
    bottom
    {
        type            nutWallFunction;
        Cmu             0.09;
        kappa           0.41;
        E               9.8;
        value           uniform 0;
    }
    frontAndBack
    {
        type            empty;
    }
}


// ************************************************************************* //
