/*--------------------------------*- C++ -*----------------------------------*\
| =========                 |                                                 |
| \\      /  F ield         | OpenFOAM Extend Project: Open source CFD        |
|  \\    /   O peration     | Version:  1.6-ext                               |
|   \\  /    A nd           | Web:      www.extend-project.de                 |
|    \\/     M anipulation  |                                                 |
\*---------------------------------------------------------------------------*/
FoamFile
{
    version     2.0;
    format      ascii;
    class       volScalarField;
    location    "1000";
    object      p_rgh;
}
// * * * * * * * * * * * * * * * * * * * * * * * * * * * * * * * * * * * * * //

dimensions      [0 2 -2 0 0 0 0];

internalField   nonuniform List<scalar> 
100
(
7.89332e-15
-0.0024466
-0.00447763
-0.00538109
-0.00575638
-0.00595025
-0.00603559
-0.00602128
-0.0059839
-0.00616059
-0.00197239
-0.00499649
-0.00607601
-0.0063783
-0.00638536
-0.00630703
-0.00621262
-0.00610379
-0.00619062
-0.00756199
-0.00295977
-0.00751454
-0.00808234
-0.00789739
-0.00745501
-0.00706656
-0.00677708
-0.0065906
-0.00693128
-0.0101426
-0.00332499
-0.00970274
-0.00986461
-0.00930883
-0.00867409
-0.00817221
-0.00779977
-0.00760056
-0.00823941
-0.0128835
-0.00315184
-0.0110317
-0.0113682
-0.0109133
-0.0106172
-0.0104439
-0.0104479
-0.0106679
-0.0115134
-0.0151212
-0.00241617
-0.0124276
-0.0136254
-0.0141358
-0.0145277
-0.015055
-0.0155913
-0.0158492
-0.0157723
-0.0170357
-0.00156744
-0.0143333
-0.0163799
-0.0173827
-0.018386
-0.0194276
-0.0202599
-0.0202814
-0.0195313
-0.0204071
-0.000204859
-0.0144598
-0.0168357
-0.0178323
-0.0185774
-0.0191323
-0.019182
-0.0178269
-0.0167641
-0.018723
0.0023702
-0.0129586
-0.0156899
-0.0167196
-0.0174525
-0.017977
-0.017806
-0.0150964
-0.0124274
-0.0142176
0.00962798
-0.000336135
-0.00520843
-0.00821269
-0.0103274
-0.0120668
-0.0128999
-0.0115027
-0.00793048
-0.00516362
)
;

boundaryField
{
    movingWall
    {
        type            buoyantPressure;
        gradient        nonuniform List<scalar> 10(-3.21107 -1.50002 -0.774023 -0.381788 -0.146169 -0.00803167 0.0354781 0.038999 0.0651173 0.761632);
        rho             rhok;
        value           nonuniform List<scalar> 10(-0.00642739 -0.00783622 -0.00907855 -0.0101216 -0.0110582 -0.0121069 -0.0127225 -0.0113077 -0.00760489 -0.00135545);
    }
    left
    {
        type            buoyantPressure;
        gradient        nonuniform List<scalar> 10(0.430502 1.36798 2.49946 3.79169 5.23673 6.76946 8.3398 9.64052 10.4491 10.1611);
        rho             rhok;
        value           nonuniform List<scalar> 10(0.00215251 0.0048675 0.00953754 0.0156335 0.0230318 0.0314311 0.0401315 0.0479978 0.0546155 0.0604334);
    }
    right
    {
        type            buoyantPressure;
        gradient        nonuniform List<scalar> 10(-0.551106 -1.60377 -2.54662 -3.30245 -3.90018 -4.19179 -4.24093 -5.48223 -6.82108 -8.36687);
        rho             rhok;
        value           nonuniform List<scalar> 10(-0.00891612 -0.0155808 -0.0228757 -0.0293958 -0.0346221 -0.0379946 -0.0416117 -0.0461341 -0.048323 -0.0469979);
    }
    bottom
    {
        type            buoyantPressure;
        gradient        uniform 0;
        rho             rhok;
        value           nonuniform List<scalar> 10(7.89332e-15 -0.0024466 -0.00447763 -0.00538109 -0.00575638 -0.00595025 -0.00603559 -0.00602128 -0.0059839 -0.00616059);
    }
    frontAndBack
    {
        type            empty;
    }
}


// ************************************************************************* //
