/*--------------------------------*- C++ -*----------------------------------*\
| =========                 |                                                 |
| \\      /  F ield         | OpenFOAM Extend Project: Open source CFD        |
|  \\    /   O peration     | Version:  1.6-ext                               |
|   \\  /    A nd           | Web:      www.extend-project.de                 |
|    \\/     M anipulation  |                                                 |
\*---------------------------------------------------------------------------*/
FoamFile
{
    version     2.0;
    format      ascii;
    class       surfaceScalarField;
    location    "1000";
    object      phi;
}
// * * * * * * * * * * * * * * * * * * * * * * * * * * * * * * * * * * * * * //

dimensions      [0 3 -1 0 0 0 0];

internalField   nonuniform List<scalar> 
180
(
4.66764e-06
-4.66764e-06
6.47956e-06
-1.81192e-06
7.14917e-06
-6.69615e-07
7.21785e-06
-6.8678e-08
6.93453e-06
2.83324e-07
6.42839e-06
5.06139e-07
5.73314e-06
6.95245e-07
4.79597e-06
9.37172e-07
3.2975e-06
1.49847e-06
3.2975e-06
2.56644e-06
-7.23408e-06
3.68629e-06
-2.93177e-06
4.08131e-06
-1.06464e-06
4.16714e-06
-1.54503e-07
4.09103e-06
3.59428e-07
3.87704e-06
7.20134e-07
3.51246e-06
1.05983e-06
2.92443e-06
1.5252e-06
1.89745e-06
2.52545e-06
5.19495e-06
9.0805e-07
-8.14213e-06
1.16476e-06
-3.18848e-06
1.26247e-06
-1.16235e-06
1.36945e-06
-2.61483e-07
1.44248e-06
2.86401e-07
1.40923e-06
7.53383e-07
1.26906e-06
1.2e-06
1.00371e-06
1.79055e-06
5.92375e-07
2.93678e-06
5.78733e-06
-3.48622e-07
-7.79351e-06
-6.35983e-07
-2.90112e-06
-7.10082e-07
-1.08825e-06
-7.54735e-07
-2.1683e-07
-8.94851e-07
4.26516e-07
-1.10064e-06
9.59175e-07
-1.30603e-06
1.40539e-06
-1.38713e-06
1.87165e-06
-1.07525e-06
2.6249e-06
4.71207e-06
-1.24431e-06
-6.54919e-06
-2.03869e-06
-2.10674e-06
-2.64246e-06
-4.84476e-07
-3.24317e-06
3.83886e-07
-3.8321e-06
1.01545e-06
-4.35268e-06
1.47975e-06
-4.67442e-06
1.72713e-06
-4.51036e-06
1.70759e-06
-3.36366e-06
1.4782e-06
1.34842e-06
-1.99123e-06
-4.55796e-06
-3.55994e-06
-5.38042e-07
-4.75981e-06
7.15397e-07
-5.70583e-06
1.3299e-06
-6.49328e-06
1.8029e-06
-7.09726e-06
2.08373e-06
-7.31063e-06
1.9405e-06
-6.74415e-06
1.14111e-06
-4.82265e-06
-4.43302e-07
-3.47423e-06
-2.37992e-06
-2.17804e-06
-4.05106e-06
1.1331e-06
-5.15495e-06
1.81929e-06
-5.95658e-06
2.13153e-06
-6.55803e-06
2.40434e-06
-6.92584e-06
2.45154e-06
-6.86541e-06
1.88007e-06
-5.85393e-06
1.29629e-07
-3.59913e-06
-2.6981e-06
-7.07337e-06
-2.52419e-06
3.46153e-07
-3.52198e-06
2.13089e-06
-4.0098e-06
2.3071e-06
-4.22211e-06
2.34385e-06
-4.25613e-06
2.43836e-06
-4.16728e-06
2.36269e-06
-3.88691e-06
1.5997e-06
-3.11205e-06
-6.4523e-07
-1.75843e-06
-4.05172e-06
-8.8318e-06
-2.65172e-06
2.99787e-06
-2.59446e-06
2.07363e-06
-2.06719e-06
1.77983e-06
-1.37693e-06
1.65358e-06
-5.22322e-07
1.58376e-06
3.78038e-07
1.46233e-06
1.20611e-06
7.7162e-07
1.49244e-06
-9.31559e-07
8.52758e-07
-3.41203e-06
-7.97904e-06
2.99787e-06
5.0715e-06
6.85134e-06
8.50492e-06
1.00887e-05
1.1551e-05
1.23226e-05
1.13911e-05
7.97904e-06
)
;

boundaryField
{
    movingWall
    {
        type            calculated;
        value           nonuniform List<scalar> 10(-3.38813e-21 1.69407e-21 0 0 0 2.11758e-22 0 -2.11758e-22 0 5.29396e-23);
    }
    left
    {
        type            calculated;
        value           nonuniform List<scalar> 10(-4.23516e-22 -8.47033e-22 0 0 0 3.38813e-21 0 -1.35525e-20 0 0);
    }
    right
    {
        type            calculated;
        value           nonuniform List<scalar> 10(0 -1.69407e-21 1.69407e-21 0 0 3.38813e-21 0 6.77626e-21 3.38813e-21 0);
    }
    bottom
    {
        type            calculated;
        value           uniform 0;
    }
    frontAndBack
    {
        type            empty;
    }
}


// ************************************************************************* //
