/*--------------------------------*- C++ -*----------------------------------*\
| =========                 |                                                 |
| \\      /  F ield         | OpenFOAM Extend Project: Open source CFD        |
|  \\    /   O peration     | Version:  1.6-ext                               |
|   \\  /    A nd           | Web:      www.extend-project.de                 |
|    \\/     M anipulation  |                                                 |
\*---------------------------------------------------------------------------*/
FoamFile
{
    version     2.0;
    format      ascii;
    class       surfaceScalarField;
    location    "1000";
    object      phi;
}
// * * * * * * * * * * * * * * * * * * * * * * * * * * * * * * * * * * * * * //

dimensions      [0 3 -1 0 0 0 0];

internalField   nonuniform List<scalar> 
180
(
4.68613e-06
-4.68613e-06
6.42118e-06
-1.73505e-06
7.00595e-06
-5.84779e-07
7.01259e-06
-6.63542e-09
6.70746e-06
3.05128e-07
6.22622e-06
4.81246e-07
5.59888e-06
6.27337e-07
4.76282e-06
8.36056e-07
3.36172e-06
1.4011e-06
3.36172e-06
2.58402e-06
-7.27015e-06
3.62984e-06
-2.78087e-06
3.93242e-06
-8.87361e-07
3.95734e-06
-3.15604e-08
3.88432e-06
3.78155e-07
3.73915e-06
6.26413e-07
3.4864e-06
8.80084e-07
3.01697e-06
1.30549e-06
2.02659e-06
2.39148e-06
5.38831e-06
9.41885e-07
-8.21203e-06
1.12866e-06
-2.96764e-06
1.14311e-06
-9.0181e-07
1.2448e-06
-1.33252e-07
1.41423e-06
2.08732e-07
1.54359e-06
4.97054e-07
1.60023e-06
8.23437e-07
1.50817e-06
1.39755e-06
1.05897e-06
2.84068e-06
6.44728e-06
-2.84365e-07
-7.92767e-06
-5.31302e-07
-2.72071e-06
-5.35458e-07
-8.97654e-07
-4.26314e-07
-2.42396e-07
-3.51702e-07
1.34119e-07
-3.1672e-07
4.62071e-07
-2.90555e-07
7.97273e-07
-2.67033e-07
1.37403e-06
-2.12409e-07
2.78606e-06
6.23487e-06
-1.11526e-06
-6.8124e-06
-1.65258e-06
-2.18339e-06
-1.89797e-06
-6.52265e-07
-2.17059e-06
3.02216e-08
-2.49497e-06
4.58499e-07
-2.77202e-06
7.39126e-07
-2.91766e-06
9.42908e-07
-2.74303e-06
1.1994e-06
-1.91189e-06
1.95492e-06
4.32298e-06
-1.88189e-06
-4.93051e-06
-3.23155e-06
-8.33729e-07
-4.26756e-06
3.83747e-07
-5.11181e-06
8.74472e-07
-5.7962e-06
1.14289e-06
-6.29801e-06
1.24093e-06
-6.42863e-06
1.07353e-06
-5.83453e-06
6.053e-07
-4.05542e-06
1.75812e-07
2.6756e-07
-2.60282e-06
-2.3277e-06
-4.45171e-06
1.01516e-06
-5.70585e-06
1.63788e-06
-6.64498e-06
1.8136e-06
-7.38569e-06
1.88361e-06
-7.85954e-06
1.71478e-06
-7.83644e-06
1.05043e-06
-6.82948e-06
-4.01662e-07
-4.46869e-06
-2.18497e-06
-4.20113e-06
-2.64699e-06
3.19292e-07
-3.81177e-06
2.17995e-06
-4.47996e-06
2.30607e-06
-4.9145e-06
2.24814e-06
-5.21071e-06
2.17982e-06
-5.38115e-06
1.88522e-06
-5.26208e-06
9.31358e-07
-4.40991e-06
-1.25383e-06
-2.62297e-06
-3.97192e-06
-6.8241e-06
-2.64298e-06
2.96228e-06
-2.59051e-06
2.12747e-06
-2.1173e-06
1.83287e-06
-1.54961e-06
1.68046e-06
-9.26656e-07
1.55686e-06
-3.79868e-07
1.33843e-06
1.41173e-07
4.10316e-07
3.26473e-07
-1.43913e-06
4.80051e-08
-3.69345e-06
-6.7761e-06
2.96228e-06
5.08975e-06
6.92261e-06
8.60307e-06
1.01599e-05
1.14984e-05
1.19087e-05
1.04695e-05
6.7761e-06
)
;

boundaryField
{
    movingWall
    {
        type            calculated;
        value           nonuniform List<scalar> 10(3.38813e-21 0 -4.23516e-22 0 5.29396e-23 3.30872e-24 0 -1.32349e-23 2.64698e-23 -4.23516e-22);
    }
    left
    {
        type            calculated;
        value           nonuniform List<scalar> 10(-4.23516e-22 -8.47033e-22 0 0 -3.38813e-21 0 0 0 -1.35525e-20 2.71051e-20);
    }
    right
    {
        type            calculated;
        value           nonuniform List<scalar> 10(-4.23516e-22 8.47033e-22 0 -1.69407e-21 -3.38813e-21 0 3.38813e-21 0 0 3.38813e-21);
    }
    bottom
    {
        type            calculated;
        value           uniform 0;
    }
    frontAndBack
    {
        type            empty;
    }
}


// ************************************************************************* //
