/*--------------------------------*- C++ -*----------------------------------*\
| =========                 |                                                 |
| \\      /  F ield         | OpenFOAM Extend Project: Open source CFD        |
|  \\    /   O peration     | Version:  1.6-ext                               |
|   \\  /    A nd           | Web:      www.extend-project.de                 |
|    \\/     M anipulation  |                                                 |
\*---------------------------------------------------------------------------*/
FoamFile
{
    version     2.0;
    format      ascii;
    class       volScalarField;
    location    "1000";
    object      T;
}
// * * * * * * * * * * * * * * * * * * * * * * * * * * * * * * * * * * * * * //

dimensions      [0 0 0 1 0 0 0];

internalField   nonuniform List<scalar> 
100
(
316.884
322.897
325.969
328.106
329.997
331.741
333.395
335.056
337.398
348.942
319.482
329.035
331.514
332.177
332.538
332.901
333.388
334.207
336.556
350.646
323.957
338.163
339.925
339.098
337.639
336.586
335.973
335.979
338.102
353.506
328.216
344.975
345.364
343.593
341.73
340.366
339.51
339.442
342.015
357.844
332.313
348.909
349.271
347.798
346.845
346.316
346.492
347.669
351.013
362.27
335.732
352.866
354.472
354.793
355.14
356.087
357.588
359.601
362.433
368.195
338.395
356.997
359.544
360.577
361.815
363.364
365.111
366.879
368.86
373.761
338.515
357.264
360.12
361.028
361.577
361.787
361.489
360.834
361.788
368.996
335.656
354.563
358.031
359.142
359.648
359.644
358.747
356.457
356.141
364.674
327.515
341.115
346.971
350.198
352.198
353.428
353.883
354.005
354.308
359.919
)
;

boundaryField
{
    movingWall
    {
        type            adiabatic;
        K               kappaEff;
        value           nonuniform List<scalar> 10(343.882 348.76 350.916 352.143 352.943 353.469 353.702 353.806 353.976 356.037);
    }
    left
    {
        type            fixedValue;
        value           uniform 273;
    }
    right
    {
        type            chtRcTemperature;
        K               kappaEff;
        radiation       1;
        remoteField     T;
        value           nonuniform List<scalar> 10(405.12 405.14 405.425 405.936 406.444 407.04 407.016 406.252 405.575 404.808);
    }
    bottom
    {
        type            adiabatic;
        K               kappaEff;
        value           nonuniform List<scalar> 10(340.976 343.091 344.264 345.122 345.87 346.555 347.205 347.856 348.72 352.376);
    }
    frontAndBack
    {
        type            empty;
    }
}


// ************************************************************************* //
