/*--------------------------------*- C++ -*----------------------------------*\
| =========                 |                                                 |
| \\      /  F ield         | OpenFOAM Extend Project: Open source CFD        |
|  \\    /   O peration     | Version:  1.6-ext                               |
|   \\  /    A nd           | Web:      www.extend-project.de                 |
|    \\/     M anipulation  |                                                 |
\*---------------------------------------------------------------------------*/
FoamFile
{
    version     2.0;
    format      ascii;
    class       volScalarField;
    location    "1000";
    object      T;
}
// * * * * * * * * * * * * * * * * * * * * * * * * * * * * * * * * * * * * * //

dimensions      [0 0 0 1 0 0 0];

internalField   nonuniform List<scalar> 
100
(
313.984
320.087
323.32
325.604
327.592
329.427
331.183
332.966
335.361
345.139
315.852
325.414
328.14
329.001
329.463
329.943
330.589
331.627
334.098
346.126
319.945
333.946
335.997
335.399
334.155
333.259
332.911
333.327
335.766
349.122
323.861
340.063
340.814
339.31
337.813
336.919
336.861
337.976
341.49
353.049
327.509
343.5
344.267
343.527
343.166
343.49
344.759
347.076
350.835
357.9
330.309
346.955
349.058
349.617
350.411
351.932
354.145
356.889
360.024
363.993
332.049
349.589
352.048
352.975
353.999
355.256
356.554
357.587
358.178
361.42
332.487
349.885
352.665
353.619
354.302
354.766
354.721
353.972
353.925
358.362
330.638
347.807
351.106
352.304
353.032
353.458
353.195
351.868
351.237
355.779
324.004
336.397
341.884
345.002
347.026
348.395
349.137
349.48
349.881
353.29
)
;

boundaryField
{
    movingWall
    {
        type            adiabatic;
        K               kappaEff;
        value           nonuniform List<scalar> 10(342.718 347.125 349.119 350.275 351.051 351.607 351.952 352.164 352.402 353.723);
    }
    left
    {
        type            fixedValue;
        value           uniform 273;
    }
    right
    {
        type            chtRcTemperature;
        K               kappaEff;
        radiation       1;
        remoteField     T;
        value           nonuniform List<scalar> 10(407.026 407.103 407.327 407.619 407.978 408.42 408.243 408.027 407.842 407.663);
    }
    bottom
    {
        type            adiabatic;
        K               kappaEff;
        value           nonuniform List<scalar> 10(339.966 342.116 343.354 344.272 345.066 345.792 346.484 347.187 348.09 351.27);
    }
    frontAndBack
    {
        type            empty;
    }
}


// ************************************************************************* //
