/*--------------------------------*- C++ -*----------------------------------*\
| =========                 |                                                 |
| \\      /  F ield         | OpenFOAM Extend Project: Open source CFD        |
|  \\    /   O peration     | Version:  1.6-ext                               |
|   \\  /    A nd           | Web:      www.extend-project.de                 |
|    \\/     M anipulation  |                                                 |
\*---------------------------------------------------------------------------*/
FoamFile
{
    version     2.0;
    format      ascii;
    class       volVectorField;
    location    "1000";
    object      U;
}
// * * * * * * * * * * * * * * * * * * * * * * * * * * * * * * * * * * * * * //

dimensions      [0 1 -1 0 0 0 0];

internalField   nonuniform List<vector> 
100
(
(0.0303184 -0.03779 0)
(0.0575006 -0.0177302 0)
(0.0694981 -0.00860225 0)
(0.0716425 -0.00382164 0)
(0.0692253 -0.000790938 0)
(0.0650428 0.00120405 0)
(0.059477 0.00271027 0)
(0.0525765 0.00424317 0)
(0.0422092 0.0076624 0)
(0.0268387 0.0208805 0)
(0.0126984 -0.0630298 0)
(0.0342008 -0.0233979 0)
(0.0391203 -0.00668461 0)
(0.0401076 0.0014726 0)
(0.0394827 0.00544516 0)
(0.0383313 0.00746691 0)
(0.0363801 0.00918691 0)
(0.0334284 0.0120481 0)
(0.02585 0.0200134 0)
(0.0173632 0.0442202 0)
(0.00134632 -0.0811255 0)
(0.0133981 -0.0309819 0)
(0.0111685 -0.0100068 0)
(0.0116902 -0.00126926 0)
(0.0134662 0.00268148 0)
(0.0149577 0.00541191 0)
(0.0157871 0.00846392 0)
(0.0164007 0.0136678 0)
(0.0126819 0.0266711 0)
(0.0106301 0.060762 0)
(-0.00575035 -0.0829431 0)
(-0.00256495 -0.0280736 0)
(-0.00630522 -0.0082261 0)
(-0.0047209 -0.00171572 0)
(-0.00376524 0.00131988 0)
(-0.00328977 0.00442474 0)
(-0.00327152 0.00792578 0)
(-0.00239708 0.014111 0)
(-0.00443514 0.0295627 0)
(0.00347158 0.0674035 0)
(-0.0104736 -0.0752339 0)
(-0.0136561 -0.0260545 0)
(-0.0183971 -0.00969698 0)
(-0.0198471 -0.00302917 0)
(-0.0235263 0.00146132 0)
(-0.0265465 0.00475018 0)
(-0.02912 0.00780341 0)
(-0.0294971 0.0126902 0)
(-0.0263046 0.0248404 0)
(-0.00746158 0.0561911 0)
(-0.0147306 -0.0600099 0)
(-0.025352 -0.0167425 0)
(-0.0382089 -0.00240387 0)
(-0.0474303 0.0042598 0)
(-0.0548748 0.00814286 0)
(-0.061198 0.0108104 0)
(-0.0651936 0.012496 0)
(-0.0638266 0.0140575 0)
(-0.0519863 0.0196194 0)
(-0.0237889 0.036057 0)
(-0.0191838 -0.0363218 0)
(-0.0361091 0.00110683 0)
(-0.0519509 0.0104774 0)
(-0.0622309 0.013602 0)
(-0.0706941 0.0151769 0)
(-0.0772519 0.014523 0)
(-0.0806474 0.00973951 0)
(-0.0763528 -0.000932964 0)
(-0.0592142 -0.0149922 0)
(-0.0242001 -0.0298824 0)
(-0.0216183 -0.00847064 0)
(-0.0333927 0.0195863 0)
(-0.0423395 0.022529 0)
(-0.0473366 0.0225806 0)
(-0.0508785 0.0219296 0)
(-0.0536466 0.0183728 0)
(-0.0558086 0.00846934 0)
(-0.0491534 -0.0115299 0)
(-0.0401471 -0.0361379 0)
(-0.00358353 -0.0625472 0)
(-0.0229647 0.0116876 0)
(-0.0278343 0.019553 0)
(-0.0239951 0.020108 0)
(-0.0184391 0.0196557 0)
(-0.0124808 0.0191574 0)
(-0.00647734 0.0169056 0)
(-0.0069527 0.00555857 0)
(0.00922838 -0.019867 0)
(-0.00403343 -0.0473892 0)
(0.0218225 -0.0757087 0)
(0.0350768 0.0469337 0)
(0.0382449 0.0276734 0)
(0.0597712 0.0205033 0)
(0.0780255 0.0171837 0)
(0.0940998 0.0151255 0)
(0.108458 0.0131939 0)
(0.119609 0.009053 0)
(0.118079 0.00094949 0)
(0.0887284 -0.0151686 0)
(0.0659322 -0.0448285 0)
)
;

boundaryField
{
    movingWall
    {
        type            fixedValue;
        value           uniform (1 0 0);
    }
    left
    {
        type            fixedValue;
        value           uniform (0 0 0);
    }
    right
    {
        type            fixedValue;
        value           uniform (0 0 0);
    }
    bottom
    {
        type            fixedValue;
        value           uniform (0 0 0);
    }
    frontAndBack
    {
        type            empty;
    }
}


// ************************************************************************* //
