/*--------------------------------*- C++ -*----------------------------------*\
| =========                 |                                                 |
| \\      /  F ield         | OpenFOAM Extend Project: Open source CFD        |
|  \\    /   O peration     | Version:  1.6-ext                               |
|   \\  /    A nd           | Web:      www.extend-project.de                 |
|    \\/     M anipulation  |                                                 |
\*---------------------------------------------------------------------------*/
FoamFile
{
    version     2.0;
    format      ascii;
    class       volScalarField;
    location    "1000";
    object      G;
}
// * * * * * * * * * * * * * * * * * * * * * * * * * * * * * * * * * * * * * //

dimensions      [1 0 -3 0 0 0 0];

internalField   nonuniform List<scalar> 
100
(
3203.37
3206.72
3210.43
3214.48
3218.87
3223.58
3228.63
3234
3239.68
3245.67
3203.54
3206.84
3210.5
3214.51
3218.85
3223.52
3228.51
3233.82
3239.44
3245.34
3203.32
3206.6
3210.23
3214.2
3218.5
3223.13
3228.08
3233.35
3238.91
3244.77
3202.75
3206.01
3209.61
3213.55
3217.83
3222.42
3227.34
3232.57
3238.1
3243.93
3201.82
3205.07
3208.66
3212.58
3216.83
3221.4
3226.29
3231.49
3236.99
3242.8
3200.56
3203.8
3207.37
3211.28
3215.5
3220.05
3224.92
3230.1
3235.58
3241.37
3198.96
3202.2
3205.76
3209.65
3213.86
3218.39
3223.24
3228.4
3233.87
3239.65
3197.04
3200.27
3203.82
3207.7
3211.9
3216.41
3221.25
3226.4
3231.85
3237.62
3194.79
3198.01
3201.56
3205.42
3209.61
3214.12
3218.94
3224.08
3229.53
3235.29
3192.21
3195.43
3198.97
3202.83
3207.01
3211.51
3216.32
3221.45
3226.89
3232.65
)
;

boundaryField
{
    movingWall
    {
        type            MarshakRadiation;
        T               T;
        emissivity      1;
        value           nonuniform List<scalar> 10(3190.76 3193.98 3197.52 3201.38 3205.55 3210.05 3214.86 3219.98 3225.42 3231.17);
    }
    left
    {
        type            MarshakRadiation;
        T               T;
        emissivity      1;
        value           nonuniform List<scalar> 10(3201.91 3202.08 3201.87 3201.29 3200.37 3199.1 3197.51 3195.58 3193.33 3190.76);
    }
    right
    {
        type            MarshakRadiation;
        T               T;
        emissivity      1;
        value           nonuniform List<scalar> 10(3248.73 3248.4 3247.83 3246.98 3245.85 3244.42 3242.69 3240.66 3238.32 3235.68);
    }
    bottom
    {
        type            MarshakRadiation;
        T               T;
        emissivity      1;
        value           nonuniform List<scalar> 10(3203.07 3206.47 3210.22 3214.3 3218.71 3223.45 3228.52 3233.92 3239.65 3245.76);
    }
    frontAndBack
    {
        type            empty;
    }
}


// ************************************************************************* //
