/*--------------------------------*- C++ -*----------------------------------*\
| =========                 |                                                 |
| \\      /  F ield         | OpenFOAM Extend Project: Open source CFD        |
|  \\    /   O peration     | Version:  1.6-ext                               |
|   \\  /    A nd           | Web:      www.extend-project.de                 |
|    \\/     M anipulation  |                                                 |
\*---------------------------------------------------------------------------*/
FoamFile
{
    version     2.0;
    format      ascii;
    class       volScalarField;
    location    "1000";
    object      p_rgh;
}
// * * * * * * * * * * * * * * * * * * * * * * * * * * * * * * * * * * * * * //

dimensions      [0 2 -2 0 0 0 0];

internalField   nonuniform List<scalar> 
100
(
6.58967e-15
-0.0023038
-0.00436167
-0.0054451
-0.00599935
-0.00630913
-0.0064958
-0.00664433
-0.00685184
-0.00731929
-0.00131559
-0.00429732
-0.00558355
-0.00620947
-0.00652668
-0.00671163
-0.00691746
-0.00729348
-0.00779657
-0.00919426
-0.00137798
-0.0059036
-0.00708373
-0.00774198
-0.0081819
-0.00852405
-0.00882362
-0.00905486
-0.00917031
-0.00992204
-0.000268118
-0.00644591
-0.00800106
-0.00867399
-0.0090084
-0.00892467
-0.00816405
-0.0065446
-0.00448835
-0.00479201
0.0019092
-0.00588608
-0.00760233
-0.00826199
-0.00836038
-0.00773955
-0.00620888
-0.00388296
-0.0026772
-0.00369468
0.00423563
-0.00513413
-0.00716997
-0.00770612
-0.00755336
-0.00668376
-0.00507778
-0.0031037
-0.00197539
-0.00320287
0.00621218
-0.00475308
-0.00717232
-0.00770537
-0.00752154
-0.00674754
-0.00534939
-0.00350358
-0.00137719
-0.00200801
0.00738872
-0.00406535
-0.00683002
-0.00756766
-0.00754793
-0.00723084
-0.00654857
-0.00395284
0.00037579
0.00181259
0.00874182
-0.00167977
-0.00462098
-0.00551788
-0.0060154
-0.00627959
-0.00586132
-0.00237613
0.00389962
0.0107731
0.0185366
0.0145214
0.0114386
0.00907085
0.00718574
0.00589422
0.00616587
0.0090787
0.0142207
0.0217255
)
;

boundaryField
{
    movingWall
    {
        type            buoyantPressure;
        gradient        nonuniform List<scalar> 10(4.24681 5.73302 6.49861 6.83382 6.9113 6.81849 6.56585 6.24254 5.91068 6.51706);
        rho             rhok;
        value           nonuniform List<scalar> 10(0.0397706 0.0431865 0.0439317 0.0432399 0.0417422 0.0399867 0.0389951 0.0402914 0.043774 0.0543109);
    }
    left
    {
        type            buoyantPressure;
        gradient        nonuniform List<scalar> 10(0.300582 0.888968 1.63802 2.52279 3.28 3.84465 4.32932 4.93382 5.38147 4.03447);
        rho             rhok;
        value           nonuniform List<scalar> 10(0.00150291 0.00312926 0.0068121 0.0123458 0.0183092 0.0234589 0.0278588 0.0320578 0.0356492 0.0387089);
    }
    right
    {
        type            buoyantPressure;
        gradient        nonuniform List<scalar> 10(-0.759349 -2.01737 -3.24649 -5.90267 -8.3544 -10.7701 -13.2512 -15.8532 -18.644 -21.819);
        rho             rhok;
        value           nonuniform List<scalar> 10(-0.011116 -0.0192811 -0.0261545 -0.0343054 -0.0454667 -0.0570534 -0.068264 -0.0774532 -0.0824468 -0.0873696);
    }
    bottom
    {
        type            buoyantPressure;
        gradient        uniform 0;
        rho             rhok;
        value           nonuniform List<scalar> 10(6.58967e-15 -0.0023038 -0.00436167 -0.0054451 -0.00599935 -0.00630913 -0.0064958 -0.00664433 -0.00685184 -0.00731929);
    }
    frontAndBack
    {
        type            empty;
    }
}


// ************************************************************************* //
