/*--------------------------------*- C++ -*----------------------------------*\
| =========                 |                                                 |
| \\      /  F ield         | OpenFOAM Extend Project: Open source CFD        |
|  \\    /   O peration     | Version:  1.6-ext                               |
|   \\  /    A nd           | Web:      www.extend-project.de                 |
|    \\/     M anipulation  |                                                 |
\*---------------------------------------------------------------------------*/
FoamFile
{
    version     2.0;
    format      ascii;
    class       volVectorField;
    location    "1000";
    object      U;
}
// * * * * * * * * * * * * * * * * * * * * * * * * * * * * * * * * * * * * * //

dimensions      [0 1 -1 0 0 0 0];

internalField   nonuniform List<vector> 
100
(
(0.0277889 -0.0357824 0)
(0.0538918 -0.0175556 0)
(0.0661825 -0.00878169 0)
(0.0690778 -0.00373435 0)
(0.0660934 -0.000327833 0)
(0.0600003 0.00181978 0)
(0.0522674 0.00307541 0)
(0.0443788 0.0042143 0)
(0.0347655 0.00690208 0)
(0.023317 0.0186587 0)
(0.0102771 -0.0584193 0)
(0.0281734 -0.0238909 0)
(0.0316164 -0.00844536 0)
(0.0281041 0.000957752 0)
(0.0206946 0.00770311 0)
(0.0116926 0.0113016 0)
(0.00313635 0.0120847 0)
(-0.00300663 0.0111683 0)
(-0.006783 0.0124218 0)
(0.0054949 0.0318476 0)
(-0.00190142 -0.0707266 0)
(0.000674928 -0.0257775 0)
(-0.00932838 -0.00304512 0)
(-0.0216655 0.0112138 0)
(-0.0326962 0.0184129 0)
(-0.042882 0.021024 0)
(-0.0495937 0.0195693 0)
(-0.050512 0.0158299 0)
(-0.042487 0.0137368 0)
(-0.0185595 0.022837 0)
(-0.00928858 -0.0590545 0)
(-0.0241229 -0.0112328 0)
(-0.0423463 0.012468 0)
(-0.0552688 0.0236701 0)
(-0.067197 0.0286885 0)
(-0.0759822 0.0272705 0)
(-0.0794561 0.0183663 0)
(-0.0743838 0.0023781 0)
(-0.0569046 -0.0177353 0)
(-0.0279672 -0.03551 0)
(-0.0113561 -0.0398599 0)
(-0.0302114 0.0092121 0)
(-0.0472265 0.0272001 0)
(-0.0602391 0.0359594 0)
(-0.0700714 0.0380615 0)
(-0.0754063 0.0319673 0)
(-0.0746339 0.016361 0)
(-0.0645305 -0.00855266 0)
(-0.0488593 -0.0373081 0)
(-0.0174955 -0.0708427 0)
(-0.0095261 -0.0216853 0)
(-0.0235379 0.0260196 0)
(-0.0368359 0.0409488 0)
(-0.0465945 0.0459944 0)
(-0.052885 0.0435929 0)
(-0.0555308 0.0317652 0)
(-0.0539214 0.00912752 0)
(-0.0448009 -0.0224209 0)
(-0.0386554 -0.0584243 0)
(-0.00684538 -0.101639 0)
(-0.00852216 -0.00977515 0)
(-0.0162258 0.0368284 0)
(-0.0217396 0.0493344 0)
(-0.0246411 0.0513432 0)
(-0.0249614 0.0461485 0)
(-0.0237731 0.0317533 0)
(-0.0222167 0.00645548 0)
(-0.0166287 -0.0276687 0)
(-0.0242633 -0.0701883 0)
(0.00506116 -0.122167 0)
(-0.0125664 0.00606698 0)
(-0.0133776 0.040812 0)
(-0.00902243 0.0500866 0)
(-0.00240055 0.0497911 0)
(0.00582308 0.043165 0)
(0.0127301 0.0299266 0)
(0.014685 0.0104643 0)
(0.0178663 -0.0216861 0)
(-0.00219759 -0.0690142 0)
(0.0195389 -0.128605 0)
(-0.0174617 0.0126842 0)
(-0.0147827 0.028558 0)
(0.00256053 0.0355303 0)
(0.0208588 0.0349286 0)
(0.0372719 0.0298843 0)
(0.0498752 0.0206779 0)
(0.0545594 0.00538764 0)
(0.0572658 -0.0199178 0)
(0.0334471 -0.0568883 0)
(0.0405848 -0.108799 0)
(0.035759 0.0472768 0)
(0.0383858 0.0269966 0)
(0.0653445 0.0215602 0)
(0.0922755 0.0192232 0)
(0.11657 0.0167742 0)
(0.136278 0.0133954 0)
(0.14844 0.00793226 0)
(0.148383 -0.00162275 0)
(0.117111 -0.0202381 0)
(0.089837 -0.0675049 0)
)
;

boundaryField
{
    movingWall
    {
        type            fixedValue;
        value           uniform (1 0 0);
    }
    left
    {
        type            fixedValue;
        value           uniform (0 0 0);
    }
    right
    {
        type            fixedValue;
        value           uniform (0 0 0);
    }
    bottom
    {
        type            fixedValue;
        value           uniform (0 0 0);
    }
    frontAndBack
    {
        type            empty;
    }
}


// ************************************************************************* //
