/*--------------------------------*- C++ -*----------------------------------*\
| =========                 |                                                 |
| \\      /  F ield         | OpenFOAM Extend Project: Open source CFD        |
|  \\    /   O peration     | Version:  1.6-ext                               |
|   \\  /    A nd           | Web:      www.extend-project.de                 |
|    \\/     M anipulation  |                                                 |
\*---------------------------------------------------------------------------*/
FoamFile
{
    version     2.0;
    format      ascii;
    class       volScalarField;
    location    "1000";
    object      kappaEff;
}
// * * * * * * * * * * * * * * * * * * * * * * * * * * * * * * * * * * * * * //

dimensions      [1 1 -3 -1 0 0 0];

internalField   nonuniform List<scalar> 
100
(
0.0468966
0.0467968
0.0460654
0.0453367
0.0446743
0.0440388
0.0434085
0.0427628
0.0420933
0.041287
0.0483715
0.0594963
0.06034
0.0608677
0.0608636
0.0603086
0.0592557
0.0573145
0.0538421
0.042229
0.0494725
0.0724481
0.0719111
0.0731606
0.0744481
0.0746492
0.073184
0.0685912
0.0614612
0.0426214
0.050441
0.0848112
0.083914
0.0876183
0.0895058
0.0892431
0.0855109
0.0758848
0.0611223
0.0422532
0.0513683
0.0856571
0.0886362
0.0940548
0.0952259
0.0911375
0.0807881
0.0662338
0.0525404
0.0418859
0.0521536
0.0849858
0.0845599
0.0815929
0.0763419
0.0685821
0.0599458
0.0527153
0.0481003
0.0427994
0.0527997
0.0805581
0.074211
0.0687542
0.0643894
0.0608357
0.0589446
0.0591193
0.0596447
0.0511311
0.0533952
0.07856
0.075444
0.0736598
0.0730609
0.072745
0.0724347
0.0719584
0.0653767
0.0531733
0.0575524
0.0857468
0.0910915
0.0965581
0.101808
0.105729
0.107758
0.0941146
0.0686479
0.0546342
0.0537108
0.0556461
0.0571128
0.0587018
0.060268
0.0614328
0.0613443
0.0600139
0.0582974
0.0561388
)
;

boundaryField
{
    movingWall
    {
        type            zeroGradient;
    }
    left
    {
        type            zeroGradient;
    }
    right
    {
        type            chtRcThermalDiffusivity;
        remoteField     k;
        value           nonuniform List<scalar> 10(0.0599885 0.0599885 0.0599885 0.0599885 0.0599885 0.0599885 0.0599885 0.0599885 0.0599885 0.0599885);
    }
    bottom
    {
        type            zeroGradient;
    }
    frontAndBack
    {
        type            empty;
    }
}


// ************************************************************************* //
