/*--------------------------------*- C++ -*----------------------------------*\
| =========                 |                                                 |
| \\      /  F ield         | OpenFOAM Extend Project: Open source CFD        |
|  \\    /   O peration     | Version:  1.6-ext                               |
|   \\  /    A nd           | Web:      www.extend-project.de                 |
|    \\/     M anipulation  |                                                 |
\*---------------------------------------------------------------------------*/
FoamFile
{
    version     2.0;
    format      ascii;
    class       volScalarField;
    location    "1000";
    object      p_rgh;
}
// * * * * * * * * * * * * * * * * * * * * * * * * * * * * * * * * * * * * * //

dimensions      [0 2 -2 0 0 0 0];

internalField   nonuniform List<scalar> 
100
(
8.3127e-14
-0.00207
-0.00352954
-0.00396939
-0.00404399
-0.00404665
-0.00404367
-0.00404976
-0.00419277
-0.00499974
-0.00217323
-0.00480087
-0.0054058
-0.00530348
-0.00500998
-0.00475749
-0.00458436
-0.00446854
-0.00464415
-0.00675909
-0.00337948
-0.00750923
-0.00758339
-0.00691165
-0.00627658
-0.00585254
-0.00558683
-0.00540955
-0.00572457
-0.00975976
-0.00406613
-0.0102059
-0.00990501
-0.00883081
-0.00812117
-0.00769903
-0.00743018
-0.00722739
-0.00772754
-0.0133559
-0.00435452
-0.012138
-0.0121765
-0.0115055
-0.0110886
-0.011006
-0.0112053
-0.0116868
-0.0127881
-0.0166072
-0.00401766
-0.0141051
-0.0151808
-0.0156642
-0.0162073
-0.0170629
-0.0180739
-0.0188984
-0.0192108
-0.0205137
-0.00342746
-0.0165373
-0.018644
-0.0197571
-0.0210083
-0.0224489
-0.0238149
-0.0244963
-0.0240965
-0.024816
-0.0024644
-0.0170341
-0.0194784
-0.0206122
-0.0215636
-0.0223688
-0.0226451
-0.0213352
-0.0205561
-0.0223922
0.000498845
-0.0151821
-0.0180134
-0.0191808
-0.0200949
-0.0208505
-0.0209476
-0.017948
-0.0154186
-0.0171157
0.0115244
0.000786909
-0.00467407
-0.00815767
-0.0107123
-0.0128759
-0.0142691
-0.013496
-0.0105855
-0.00843308
)
;

boundaryField
{
    movingWall
    {
        type            buoyantPressure;
        gradient        uniform 0;
        rho             rhok;
        value           nonuniform List<scalar> 10(0.0115244 0.000786909 -0.00467407 -0.00815767 -0.0107123 -0.0128759 -0.0142691 -0.013496 -0.0105855 -0.00843308);
    }
    left
    {
        type            buoyantPressure;
        gradient        nonuniform List<scalar> 10(0.395535 1.37189 2.53201 3.85793 5.37068 6.99433 8.68469 10.1619 10.987 9.96838);
        rho             rhok;
        value           nonuniform List<scalar> 10(0.00197768 0.00468624 0.00928056 0.0152235 0.0224989 0.030954 0.039996 0.0483449 0.0554336 0.0613663);
    }
    right
    {
        type            buoyantPressure;
        gradient        nonuniform List<scalar> 10(-1.18583 -3.42151 -5.46229 -7.18291 -8.61672 -9.44997 -10.3071 -12.84 -15.4282 -18.2386);
        rho             rhok;
        value           nonuniform List<scalar> 10(-0.0109289 -0.0238666 -0.0370712 -0.0492705 -0.0596908 -0.0677635 -0.0763516 -0.0865923 -0.0942569 -0.0996263);
    }
    bottom
    {
        type            buoyantPressure;
        gradient        uniform -0;
        rho             rhok;
        value           nonuniform List<scalar> 10(8.3127e-14 -0.00207 -0.00352954 -0.00396939 -0.00404399 -0.00404665 -0.00404367 -0.00404976 -0.00419277 -0.00499974);
    }
    frontAndBack
    {
        type            empty;
    }
}


// ************************************************************************* //
