/*--------------------------------*- C++ -*----------------------------------*\
| =========                 |                                                 |
| \\      /  F ield         | OpenFOAM Extend Project: Open source CFD        |
|  \\    /   O peration     | Version:  1.6-ext                               |
|   \\  /    A nd           | Web:      www.extend-project.de                 |
|    \\/     M anipulation  |                                                 |
\*---------------------------------------------------------------------------*/
FoamFile
{
    version     2.0;
    format      ascii;
    class       surfaceScalarField;
    location    "1000";
    object      phi;
}
// * * * * * * * * * * * * * * * * * * * * * * * * * * * * * * * * * * * * * //

dimensions      [0 3 -1 0 0 0 0];

internalField   nonuniform List<scalar> 
180
(
4.35819e-06
-4.35819e-06
5.7589e-06
-1.40071e-06
6.00802e-06
-2.49117e-07
5.74556e-06
2.62459e-07
5.28928e-06
4.56278e-07
4.80237e-06
4.86914e-07
4.35576e-06
4.46605e-07
3.95868e-06
3.97078e-07
3.23179e-06
7.26896e-07
3.23179e-06
2.5319e-06
-6.89009e-06
3.41775e-06
-2.28657e-06
3.52007e-06
-3.51436e-07
3.39108e-06
3.91457e-07
3.25045e-06
5.96904e-07
3.12357e-06
6.13795e-07
2.98255e-06
5.8762e-07
2.73257e-06
6.47059e-07
2.01726e-06
1.44221e-06
5.24904e-06
1.06848e-06
-7.95857e-06
1.2243e-06
-2.44238e-06
1.1835e-06
-3.10638e-07
1.30402e-06
2.7093e-07
1.50188e-06
3.99049e-07
1.66251e-06
4.53159e-07
1.74633e-06
5.038e-07
1.67987e-06
7.13528e-07
1.2173e-06
1.90478e-06
6.46635e-06
-8.99939e-08
-7.86857e-06
-2.2823e-07
-2.30415e-06
-8.99497e-08
-4.48918e-07
1.65405e-07
1.55751e-08
3.38669e-07
2.25786e-07
4.01991e-07
3.89837e-07
3.57073e-07
5.48717e-07
1.51532e-07
9.19069e-07
-1.31348e-07
2.18766e-06
6.335e-06
-9.16535e-07
-6.95204e-06
-1.20416e-06
-2.01652e-06
-1.2006e-06
-4.52479e-07
-1.33119e-06
1.46165e-07
-1.62928e-06
5.2388e-07
-2.01762e-06
7.78181e-07
-2.40401e-06
9.35105e-07
-2.5855e-06
1.10056e-06
-2.10341e-06
1.70556e-06
4.23159e-06
-1.68473e-06
-5.26731e-06
-2.79471e-06
-9.06538e-07
-3.67537e-06
4.2818e-07
-4.50471e-06
9.75506e-07
-5.29334e-06
1.3125e-06
-5.98901e-06
1.47385e-06
-6.38361e-06
1.32971e-06
-6.09654e-06
8.13491e-07
-4.58341e-06
1.9243e-07
-3.51821e-07
-2.48047e-06
-2.78684e-06
-4.20086e-06
8.13851e-07
-5.35975e-06
1.58707e-06
-6.26456e-06
1.88032e-06
-7.03464e-06
2.08258e-06
-7.60591e-06
2.04512e-06
-7.74635e-06
1.47014e-06
-6.91125e-06
-2.16024e-08
-4.69166e-06
-2.02716e-06
-5.04348e-06
-2.75812e-06
-2.8722e-08
-3.91229e-06
1.96803e-06
-4.50918e-06
2.18395e-06
-4.85812e-06
2.22926e-06
-5.06652e-06
2.29099e-06
-5.1745e-06
2.15311e-06
-5.09562e-06
1.39126e-06
-4.30368e-06
-8.13544e-07
-2.5821e-06
-3.74874e-06
-7.62558e-06
-2.89636e-06
2.86764e-06
-2.92797e-06
1.99963e-06
-2.47597e-06
1.73196e-06
-1.86706e-06
1.62034e-06
-1.13896e-06
1.5629e-06
-4.22801e-07
1.43694e-06
2.59951e-07
7.0851e-07
5.07581e-07
-1.06117e-06
1.28942e-07
-3.3701e-06
-7.49664e-06
2.86764e-06
4.86727e-06
6.59923e-06
8.21957e-06
9.78247e-06
1.12194e-05
1.19279e-05
1.08667e-05
7.49664e-06
)
;

boundaryField
{
    movingWall
    {
        type            calculated;
        value           uniform 0;
    }
    left
    {
        type            calculated;
        value           nonuniform List<scalar> 10(0 8.47033e-22 0 0 0 0 0 0 1.35525e-20 1.35525e-20);
    }
    right
    {
        type            calculated;
        value           nonuniform List<scalar> 10(1.69407e-21 0 0 6.77626e-21 0 0 0 -6.77626e-21 -6.77626e-21 0);
    }
    bottom
    {
        type            calculated;
        value           uniform 0;
    }
    frontAndBack
    {
        type            empty;
    }
}


// ************************************************************************* //
