/*--------------------------------*- C++ -*----------------------------------*\
| =========                 |                                                 |
| \\      /  F ield         | OpenFOAM Extend Project: Open source CFD        |
|  \\    /   O peration     | Version:  1.6-ext                               |
|   \\  /    A nd           | Web:      www.extend-project.de                 |
|    \\/     M anipulation  |                                                 |
\*---------------------------------------------------------------------------*/
FoamFile
{
    version     2.0;
    format      ascii;
    class       volScalarField;
    location    "1000";
    object      Qr;
}
// * * * * * * * * * * * * * * * * * * * * * * * * * * * * * * * * * * * * * //

dimensions      [1 0 -3 0 0 0 0];

internalField   uniform 0;

boundaryField
{
    movingWall
    {
        type            calculated;
        value           nonuniform List<scalar> 10(-48.6683 -35.189 -28.6291 -24.4483 -21.6136 -19.7697 -18.8356 -18.1952 -17.5668 -15.7995);
    }
    left
    {
        type            calculated;
        value           nonuniform List<scalar> 10(-275.436 -275.061 -274.712 -274.396 -274.116 -273.874 -273.669 -273.501 -273.369 -273.271);
    }
    right
    {
        type            calculated;
        value           nonuniform List<scalar> 10(21.204 8.0322 2.06527 -1.09554 -3.20896 -4.74063 -5.88447 -6.73557 -7.33392 -7.67345);
    }
    bottom
    {
        type            calculated;
        value           nonuniform List<scalar> 10(255.67 292.591 296.102 302.361 311.95 321.37 325.662 322.473 305.672 261.64);
    }
    frontAndBack
    {
        type            empty;
    }
}


// ************************************************************************* //
