/*--------------------------------*- C++ -*----------------------------------*\
| =========                 |                                                 |
| \\      /  F ield         | OpenFOAM Extend Project: Open source CFD        |
|  \\    /   O peration     | Version:  1.6-ext                               |
|   \\  /    A nd           | Web:      www.extend-project.de                 |
|    \\/     M anipulation  |                                                 |
\*---------------------------------------------------------------------------*/
FoamFile
{
    version     2.0;
    format      ascii;
    class       volScalarField;
    location    "1000";
    object      T;
}
// * * * * * * * * * * * * * * * * * * * * * * * * * * * * * * * * * * * * * //

dimensions      [0 0 0 1 0 0 0];

internalField   nonuniform List<scalar> 
100
(
313.32
317.358
318.513
319.145
319.697
320.192
320.654
321.184
322.969
340.358
319.615
327.517
328.412
327.814
326.959
326.252
325.787
325.658
327.119
345.035
324.621
337.251
337.495
335.222
333.221
331.874
330.978
330.461
331.642
350.02
329.181
345.36
344.605
341.497
339.466
338.175
337.299
336.741
338.199
356.896
333.83
350.38
350.243
348.343
347.112
346.686
347.039
348.315
351.681
364.025
337.816
355.25
356.785
357.161
357.833
359.336
361.533
364.256
367.718
374.178
341.099
360.29
363.079
364.403
366.12
368.299
370.75
373.196
375.459
381.019
342.058
361.236
364.315
365.557
366.503
367.075
366.907
365.94
366.602
374.578
338.881
358.195
361.921
363.369
364.242
364.569
363.783
360.779
359.921
369.301
326.481
340.899
347.574
351.546
354.224
356.035
356.876
357.083
357.468
363.932
)
;

boundaryField
{
    movingWall
    {
        type            zeroGradient;
    }
    left
    {
        type            fixedValue;
        value           uniform 273;
    }
    right
    {
        type            chtRcTemperature;
        K               kappaEff;
        radiation       0;
        remoteField     T;
        value           nonuniform List<scalar> 10(461.237 461.294 461.382 461.496 461.62 461.751 461.84 461.837 461.814 461.784);
    }
    bottom
    {
        type            zeroGradient;
    }
    frontAndBack
    {
        type            empty;
    }
}


// ************************************************************************* //
