/*--------------------------------*- C++ -*----------------------------------*\
| =========                 |                                                 |
| \\      /  F ield         | OpenFOAM Extend Project: Open source CFD        |
|  \\    /   O peration     | Version:  1.6-ext                               |
|   \\  /    A nd           | Web:      www.extend-project.de                 |
|    \\/     M anipulation  |                                                 |
\*---------------------------------------------------------------------------*/
FoamFile
{
    version     2.0;
    format      ascii;
    class       polyBoundaryMesh;
    location    "constant/polyMesh";
    object      boundary;
}
// * * * * * * * * * * * * * * * * * * * * * * * * * * * * * * * * * * * * * //

9
(
    movingWall
    {
        type            wall;
        nFaces          10;
        startFace       360;
    }
    left
    {
        type            wall;
        nFaces          10;
        startFace       370;
    }
    right
    {
        type            regionCouple;
        nFaces          10;
        startFace       380;

        shadowRegion    region0;
        shadowPatch     left2;
        attached        on;
        isWall          on;
    }
    bottom
    {
        type            wall;
        nFaces          10;
        startFace       390;
    }
    movingWall2
    {
        type            wall;
        nFaces          10;
        startFace       400;
    }
    left2
    {
        type regionCouple;
        nFaces 10;
        startFace 410;

        shadowRegion    region0;
        shadowPatch     right;
        attached        on;
        isWall          on;
    }
    right2
    {
        type            wall;
        nFaces          10;
        startFace       420;
    }
    bottom2
    {
        type            wall;
        nFaces          10;
        startFace       430;
    }
    frontAndBack
    {
        type            empty;
        nFaces          400;
        startFace       440;
    }
)

// ************************************************************************* //
