/*--------------------------------*- C++ -*----------------------------------*\
| =========                 |                                                 |
| \\      /  F ield         | OpenFOAM Extend Project: Open source CFD        |
|  \\    /   O peration     | Version:  1.6-ext                               |
|   \\  /    A nd           | Web:      www.extend-project.de                 |
|    \\/     M anipulation  |                                                 |
\*---------------------------------------------------------------------------*/
FoamFile
{
    version     2.0;
    format      ascii;
    class       volScalarField;
    location    "2000";
    object      G;
}
// * * * * * * * * * * * * * * * * * * * * * * * * * * * * * * * * * * * * * //

dimensions      [1 0 -3 0 0 0 0];

internalField   nonuniform List<scalar> 
26307
(
1861.29
1913.5
1890.54
1958.66
1889.5
1908.07
1923.4
1869.28
1931.81
1861.18
1857.51
1904.12
1934.41
1888.52
1966.36
1912.43
1887.2
1921.15
1927.46
1902.07
1890.79
1861.3
1918.91
1963.53
1912.87
1910.66
1900.01
1968.17
1908.65
1892.06
1963.19
1878.08
1924.36
1919.51
1904.42
1859.35
1868.33
1929.99
1908.7
1865.03
1923.77
1920.35
1889.4
1915.45
1916.07
1949.43
1889.14
1876.14
1864.06
1928.05
1934.63
1942.69
1887.65
1902.85
1917.3
1899.12
1886.48
1942.6
1877.94
1889.36
1952.05
1950.14
1922.43
1966.22
1900.37
1919.67
1862.23
1929.6
1886.11
1862.19
1874.15
1908.56
1860.94
1952.93
1956.95
1868.31
1918.33
1916.83
1887.76
1915.8
1919.09
1859.95
1972.23
1871.12
1861.23
1875.81
1906.32
1886.67
1864.09
1917.51
1860.31
1914.11
1918.12
1925.55
1913.39
1904.55
1922.07
1918.68
1883.19
1889.64
1924.78
1932.37
1860.6
1861.14
1896.35
1920.29
1904.12
1889.33
1861.26
1894.3
1866.32
1970.97
1886.34
1868.8
1955.83
1966.34
1971.12
1912.87
1879
1861.38
1862.67
1891.84
1952.38
1933.98
1899.48
1908.72
1876.34
1916.05
1923.72
1934.78
1923.06
1949.09
1866.2
1931.86
1904.89
1886.99
1879.06
1861.93
1906.25
1910.74
1861.46
1916.63
1905.74
1968.74
1861.39
1875.98
1883.81
1930.26
1947.52
1887.81
1866.46
1913.82
1928.45
1865.46
1864.46
1882.27
1937.02
1944.23
1902.34
1955.77
1907.46
1904.19
1885.76
1882.54
1860.33
1873.52
1888.7
1876.5
1926.65
1868.99
1861.17
1861.46
1860.19
1886.89
1968.26
1936.48
1921.95
1861.05
1860.69
1870.45
1907.18
1913.22
1863.58
1885.37
1930.92
1893.69
1889.86
1954.86
1953.96
1908.56
1924.9
1911.85
1921.14
1860.61
1888.61
1857.25
1919.77
1871
1936.42
1867.2
1969.94
1860.78
1928.97
1922.35
1911.27
1871.66
1914.94
1937.89
1897.17
1915.43
1886.1
1905.46
1861.38
1927.62
1939.6
1872.38
1915.36
1896.09
1863.56
1917.87
1904.39
1938.94
1967.65
1896.68
1947.01
1857.87
1962.72
1895.92
1865.81
1928.09
1891.68
1895.29
1970.08
1890.9
1857.19
1909.72
1860.9
1915.32
1912.9
1889.69
1936.12
1964.9
1912.23
1891.84
1905.96
1886.15
1885.94
1878.49
1905.29
1888.82
1859.27
1860.58
1971.64
1950.64
1916.63
1967.51
1946.97
1911.72
1959.26
1895.7
1860.62
1965.04
1934.69
1891
1861.71
1932.45
1875.14
1879.36
1860.48
1883.24
1878.89
1870.54
1872.91
1949.89
1860.04
1961.94
1907.34
1918.71
1913.77
1886.07
1914.62
1903.19
1892.19
1932.87
1946.7
1888.89
1891.01
1967.68
1882.41
1879.3
1916.7
1918.98
1861.79
1883.64
1883.26
1895.54
1931.22
1910.93
1883.39
1918.35
1896.53
1910.52
1883.15
1885.8
1914.97
1921.5
1930.17
1893.64
1866.83
1913.23
1865.49
1920.61
1862.01
1936.83
1908.03
1914.66
1956.41
1902.39
1860.09
1886.63
1882.75
1896.1
1936.4
1910.13
1915.45
1919.56
1912.37
1873.41
1861.59
1903.75
1863.97
1950.79
1878.07
1882.99
1886.47
1925.2
1860.82
1885.15
1862.99
1908
1963.87
1959.1
1861.01
1859.06
1924.52
1883.44
1909.13
1862.35
1899.08
1896.91
1883.15
1917.36
1961.57
1910.08
1898.32
1882.86
1912.31
1923.32
1967.62
1900.45
1912.47
1861.31
1911.55
1951.48
1929.06
1907.69
1884.91
1912.82
1914.71
1901.53
1900.79
1876.33
1885.36
1898.74
1892.22
1860.85
1857.95
1869.09
1885.91
1917.98
1869.51
1859.84
1958.49
1967.42
1923.77
1877.08
1874.43
1864.65
1899.69
1859.69
1910.42
1882.73
1895.61
1900.9
1875.37
1865.75
1919.62
1925.75
1906.95
1960.5
1904.47
1922.22
1946.88
1884.26
1857.36
1889.86
1894.38
1877.45
1882.58
1950.31
1915.74
1896.68
1860.21
1882.9
1944.51
1910.19
1934.66
1923.71
1969.97
1892.7
1959.87
1925.89
1917.85
1920.57
1877.12
1865.93
1945.7
1922.5
1861.2
1914.63
1857.31
1881.41
1905.26
1873.79
1880.82
1864.46
1908.22
1914.49
1883.57
1882.07
1892.54
1902.58
1931.27
1921.3
1862.06
1948.65
1905.24
1860.3
1908.32
1857.11
1879.88
1922.14
1881.93
1889.49
1861.04
1899.05
1888.11
1894.93
1909.61
1920.23
1886.7
1919.7
1908.15
1912.91
1900.65
1863.41
1908.82
1958.4
1952.81
1924.13
1859.3
1910.51
1883.79
1883.91
1899.74
1911.08
1894.56
1891.32
1947.94
1913.31
1883.85
1937.04
1921.52
1892.3
1887.59
1901.4
1882.32
1918.84
1878.7
1877.12
1902.83
1888.3
1894.29
1945.29
1946.17
1881.21
1883.54
1861.17
1919.78
1966.35
1860.96
1887.6
1885.33
1974.83
1870.7
1872.33
1859.79
1887.16
1886.55
1914.07
1950.93
1974.77
1922.14
1933.64
1902.4
1935.22
1921.51
1893.67
1884.48
1926.56
1965.73
1908.9
1888.58
1962.99
1913.37
1917.38
1923.7
1884.25
1864.66
1920.05
1899
1884.02
1883.71
1892.57
1934.49
1881.76
1920.19
1911.7
1902.13
1913.36
1886.21
1881.92
1873.3
1884.19
1893.12
1874.89
1972.88
1895.89
1915.59
1902.53
1918.53
1870.83
1883.87
1929.06
1950.23
1899.39
1892.98
1920.82
1905.4
1969.17
1912.52
1900.37
1868.45
1927.36
1902.42
1875.84
1968.8
1910.3
1891.17
1888.63
1963.82
1914.07
1909.32
1931.1
1934.97
1912.8
1922.3
1865.25
1884.19
1920.69
1887.18
1913.6
1958.22
1925.58
1906.39
1882.17
1902.17
1862.13
1937.88
1907.51
1934.22
1903.79
1905.11
1922.47
1893.49
1863.26
1868.3
1885.32
1918.95
1913.28
1903.88
1861.09
1904
1959.86
1861.04
1950.56
1929.51
1972.35
1922.63
1934.18
1975.41
1951.13
1883.78
1883.52
1870.31
1887.02
1876.51
1862.85
1886.89
1919.68
1879.77
1885.25
1922.87
1863.44
1888.17
1860.37
1869.9
1884.55
1910.3
1947.69
1915.04
1882.74
1933.3
1886.82
1903.19
1962.87
1863.03
1893.83
1898.95
1919.09
1860.08
1893.43
1869.6
1921.4
1900.97
1884.39
1874.02
1858.87
1891.07
1934.83
1860.17
1888.7
1935.89
1922.53
1895.96
1885.91
1860.82
1947.77
1877.34
1880.11
1861.15
1913.97
1858.86
1922.57
1887.77
1880.58
1902.03
1929.77
1914.61
1861.05
1940.01
1956.75
1971.39
1969.5
1907.97
1951.02
1924.48
1881.41
1906.5
1862.58
1894.3
1903.52
1921.38
1937.31
1909.12
1942.81
1879.3
1891.71
1884.41
1884.11
1884.88
1925.87
1882.45
1939.38
1886.57
1924.27
1913.96
1880.01
1895.84
1912.41
1884.2
1969.99
1889.65
1936.2
1965.9
1909.1
1899.52
1868.4
1884.48
1913.58
1902.7
1898.86
1880.26
1948.2
1896.52
1908.84
1887.04
1883.99
1884.32
1919.34
1867.44
1891.41
1879.31
1895.01
1881.05
1911.32
1887.28
1883.61
1891.98
1941.61
1877.36
1891.42
1895.52
1883.35
1861.64
1894.86
1895.38
1882.03
1889.5
1944.78
1879.55
1954.16
1879.71
1877.61
1899.16
1900.43
1910.13
1930.58
1909.49
1887.1
1879.06
1875.82
1898.02
1890.19
1869.24
1933.67
1911.12
1898.91
1890.15
1956.41
1885.06
1888.29
1971.64
1904.64
1921.43
1929.65
1887.59
1890.03
1861.75
1873.76
1885.11
1889.16
1938.47
1909.5
1925.69
1894.4
1919.89
1892.48
1895.79
1867.03
1913.2
1924.6
1967.7
1899.67
1929.94
1914.67
1961.72
1934.73
1877.51
1887.08
1946.86
1960.96
1892.55
1918.67
1883.42
1915.55
1886.13
1889.16
1894
1933.65
1861.08
1884.71
1895.46
1865.52
1874.59
1945.42
1889.68
1958.62
1885.26
1889.92
1950.24
1912.47
1882.03
1885.59
1879.76
1913.31
1902.97
1859.28
1896.28
1912.95
1901.78
1894.95
1909.28
1907.19
1927.52
1861.13
1946.07
1934.04
1970.29
1904.32
1919.93
1897.54
1906.91
1887.06
1861.83
1886.61
1922.92
1895.41
1890.65
1917.55
1918.78
1858.54
1875.26
1953.89
1903.36
1867.24
1871.84
1916.68
1914.18
1902.18
1951.38
1888.73
1905.04
1861.45
1886.62
1866.83
1859.29
1931.53
1913.93
1913.99
1913.42
1896.51
1858.13
1941.75
1914.49
1867.28
1870.58
1951.65
1884.75
1932.21
1951.75
1974.6
1920.84
1958.12
1903.87
1913.85
1939.36
1897.35
1861.33
1881.62
1971.47
1904.36
1918.27
1910.05
1862.67
1864.85
1884.23
1919.71
1915.94
1937.61
1926.76
1925.02
1885.93
1926.63
1906.88
1865.06
1858.11
1895.74
1869.08
1947.35
1864.43
1902.02
1960.25
1859.28
1905
1889.38
1930.96
1903.84
1872.3
1882.49
1921.11
1950.57
1883.74
1945.96
1879.29
1915.96
1951.02
1916.04
1871.56
1891.57
1932.64
1860.72
1887.15
1892.87
1871.81
1888.38
1862.16
1970.01
1890.3
1952.04
1895.9
1912.45
1858.46
1881.06
1884.58
1883.02
1915.5
1933.84
1919.29
1865.57
1933.81
1861.32
1895.9
1936.45
1937.86
1915.8
1887.52
1934.38
1892.88
1883.94
1890.75
1922.41
1884.57
1884.38
1884.69
1860.03
1935.23
1867.61
1898.04
1876.47
1904.91
1910.73
1863.69
1861
1865.45
1927.92
1858.99
1892.83
1861.5
1920.52
1948.71
1928.98
1907
1878.68
1926.15
1910.01
1945.45
1965.76
1951.32
1972.66
1917.92
1882.31
1895.1
1882.52
1890.78
1901.3
1964.99
1920.01
1860.06
1892.4
1907.18
1906.94
1924.17
1861.7
1910.65
1860.58
1870.86
1892.69
1904.58
1885.11
1893.3
1860.97
1860.68
1936.63
1892.1
1930.32
1915.68
1884.5
1920.9
1938.21
1938.41
1918.15
1904.17
1910.87
1964.03
1919.09
1880.69
1963.69
1916.07
1931.15
1906.61
1925.63
1890.04
1893.31
1859.16
1937.15
1920.1
1915.37
1882.32
1885.87
1860.94
1950.81
1909.08
1865.85
1924.75
1956.75
1898.41
1963.94
1903.29
1896.97
1891.17
1893.21
1928.5
1914.81
1922.2
1897.64
1934.64
1884.7
1882.31
1933.86
1925.12
1910.16
1906.23
1879.05
1861.47
1859.38
1889.28
1903.68
1884.71
1868.51
1970.31
1860.93
1913.5
1895.83
1911.97
1876.88
1932.82
1883.47
1877.28
1937.65
1880.54
1891.47
1859.41
1887.75
1916.98
1935.86
1883.8
1971.7
1914.49
1951.63
1863.08
1913.79
1930.89
1943.86
1881.51
1891.86
1938.68
1970.51
1918.31
1940.07
1915.76
1905.29
1873.17
1920.66
1906.81
1913
1879.38
1895.58
1919.95
1876.27
1890.63
1872.11
1884.82
1956.59
1861.4
1935.06
1891.81
1878.4
1889.71
1903.58
1899.87
1901.5
1911.49
1858.45
1861.34
1865.33
1890.14
1882.19
1937.59
1886.65
1926.21
1907.02
1889.18
1912.39
1896.48
1908.99
1914.89
1902.75
1926
1931.61
1896.27
1949.89
1915.14
1895.61
1952.48
1874.26
1889.91
1894.8
1931.99
1891.08
1891.76
1876.16
1922.9
1896.43
1891.12
1936.09
1897.35
1904.06
1909.44
1896.45
1923.19
1898.59
1883.13
1933.88
1895.82
1891.4
1912.51
1909.61
1901.2
1898.64
1924.94
1927.98
1892.34
1873.47
1935.62
1921.51
1892.93
1915.64
1871.61
1892.3
1859.17
1903.36
1889.2
1859.16
1914.7
1927.3
1861.85
1892.36
1960.27
1935.15
1885.25
1879.73
1882.58
1903.51
1888.33
1882.87
1901.54
1860.81
1899.7
1917.38
1903.49
1861.55
1880.82
1894.54
1878.79
1953.28
1969.74
1888.78
1890.67
1896.64
1896.35
1955.25
1888.32
1919.85
1905.28
1861.37
1907.79
1923.92
1937.53
1885.99
1896.6
1862.41
1964.26
1954.76
1893.53
1905.69
1893.26
1971.96
1950.66
1916.91
1966.49
1946.29
1910.99
1915.65
1891.98
1936.02
1922.76
1902.47
1874.69
1884.84
1861.2
1895.42
1923.15
1905.54
1961.27
1936.24
1879.43
1859.51
1896.53
1931.91
1891.63
1909.4
1908.76
1884.74
1919.01
1951.44
1892.83
1858.47
1933.11
1857.51
1912.67
1910.47
1946.78
1926.86
1958.37
1902.16
1924.39
1936.68
1902.67
1867.75
1933.4
1861.05
1899.01
1899.7
1948.53
1898.12
1908.03
1921.04
1913.69
1898.18
1956.12
1889.26
1901.33
1865.56
1933.69
1934.57
1972.94
1943.93
1939.83
1936.87
1955.89
1955.25
1892.44
1860.9
1878.89
1872.87
1922.76
1888.46
1964.14
1899.31
1879.14
1910.53
1875.59
1905.05
1861.01
1897.46
1898.27
1911.13
1874.96
1884.82
1904.22
1907.79
1900.54
1911.42
1870.21
1861.18
1945.23
1889.88
1922.64
1885.03
1943.32
1934.94
1872.95
1933.71
1949.58
1934.94
1928.94
1958.15
1883.86
1884.45
1921.39
1916.96
1896.11
1894.9
1919.51
1889.23
1896.38
1898.15
1861.41
1894.18
1876.63
1923.11
1951.24
1912.68
1890.83
1910.29
1880.27
1915.85
1892.31
1892.32
1916.58
1886.43
1890.8
1893.88
1909.01
1905.3
1946.42
1916.84
1899.82
1879.55
1973.22
1904.16
1874.36
1895.96
1858.77
1860.74
1934.6
1860.92
1912.21
1870.54
1879.6
1914.69
1898.23
1908.68
1918.99
1904.66
1895.69
1881.67
1899.88
1909.83
1921.11
1915.65
1858.7
1915.28
1860.49
1885.43
1899.66
1872.78
1911.14
1914.2
1912.12
1863.16
1935.96
1895.96
1861.93
1935.36
1918.39
1892.8
1945.13
1888.43
1915.85
1888.64
1893.89
1913.99
1917.89
1892.86
1900.42
1891.59
1964.7
1884.96
1936.88
1933.42
1881.43
1920.06
1893.38
1923.53
1899.82
1923.1
1905.74
1882.37
1921.18
1910.47
1899.2
1941.94
1898.07
1894.72
1922.24
1920.91
1915.7
1908.76
1898.15
1858.87
1875.06
1859.33
1895.78
1865.98
1891.44
1891.08
1921.11
1940.56
1861.39
1929.58
1908.12
1885
1910.59
1922.56
1904.49
1963.89
1889.51
1918.78
1903.92
1896.12
1861.06
1921.5
1889.83
1913.98
1961.22
1889
1891.32
1916.01
1895.65
1869.59
1872.58
1885.25
1903.51
1954.63
1961.27
1891.48
1912.84
1968.82
1860.06
1869.09
1885.21
1924.43
1916.43
1956.14
1859.88
1863.05
1898.29
1926.42
1894.73
1932.7
1968.7
1888.33
1860.72
1905.37
1922.18
1902.13
1946.02
1902.66
1898.85
1880.13
1968.17
1955.21
1948.21
1912.99
1916.72
1928.13
1928.7
1885.38
1904.21
1859.5
1861.27
1893.8
1941
1913.88
1889.92
1918.69
1875.87
1916.38
1903.63
1915.95
1910.38
1947.38
1909
1912.8
1931.04
1888.4
1887.48
1882.83
1862.66
1945.32
1887.79
1915.37
1893.74
1956.27
1895.4
1923.49
1863.34
1961.7
1859.5
1884.98
1911.77
1913.85
1943.51
1901.82
1894.16
1937.96
1896.61
1942.36
1884.59
1908.75
1878.42
1941.12
1872.23
1861.21
1893.89
1881.94
1861.55
1862.17
1872.46
1954.18
1860.77
1872.02
1920.41
1894.41
1861.24
1919.69
1968.9
1881.04
1862.86
1961.68
1956.86
1884.7
1858.3
1964.61
1893.08
1937.44
1872.61
1959.35
1924.86
1859.6
1895.25
1867.27
1859.28
1972.69
1900.1
1909.74
1931.34
1862.46
1893.79
1894.29
1879.77
1889.71
1954.01
1968.98
1922.97
1923.44
1921.73
1905.13
1922.2
1915.62
1933.49
1897.34
1916.51
1903.01
1938.62
1907.48
1870.52
1911.19
1875.46
1913.43
1935.48
1885.3
1897.54
1900.56
1932.97
1884.09
1940.7
1928.8
1861.32
1865.24
1894.89
1868.17
1893.22
1900.72
1902.4
1952.84
1881.48
1885.6
1914.75
1864.98
1890.87
1883.34
1965.83
1861.15
1929.86
1900.42
1913.03
1882.18
1905.5
1864.15
1895.34
1920.96
1905.65
1901.16
1919.48
1922.12
1908.98
1912.76
1881.93
1872.21
1913.95
1913.9
1911.06
1861.32
1930.13
1926.31
1913.77
1867.74
1906.45
1922.63
1896.28
1945.82
1936.58
1957.53
1910.56
1899.19
1971.23
1857.73
1922.03
1863.2
1910.61
1914.38
1900.71
1941.04
1881.88
1913.65
1887.63
1860.34
1862.85
1908.56
1871.27
1891.08
1885.43
1886.62
1962.76
1923.56
1859.85
1923
1885.58
1897.03
1866.54
1899.76
1892.43
1918.89
1904.71
1917.73
1880.53
1892.48
1892.88
1916.73
1935.36
1917.43
1865.08
1875.62
1958.05
1863.6
1957.01
1893.15
1895.28
1858.97
1886.65
1919.91
1905.21
1934.57
1917.8
1918.86
1897.22
1969.2
1916.19
1913.8
1929.85
1881.67
1862.84
1913.47
1954.29
1888.7
1902.01
1900.33
1856.77
1895.28
1942.85
1860.86
1887.85
1861.3
1932.18
1931.62
1916.36
1901.46
1957.85
1911.34
1909.1
1915.5
1958.65
1892.91
1892.49
1914.78
1925.36
1930.32
1917.67
1879.36
1921.87
1863.84
1940.93
1915.92
1902.56
1952.24
1922.24
1914.44
1895.98
1858.96
1935.5
1878.92
1912.41
1921.99
1936.71
1959.93
1861.89
1953.41
1917.38
1938.81
1910.33
1870.46
1870.34
1933.11
1921.67
1951.37
1974.74
1922.9
1934.52
1975.23
1950.35
1880.99
1860.91
1859.45
1879.68
1921.12
1915.7
1940.42
1918.49
1891.9
1915.05
1932.96
1899.74
1937
1921.94
1876.74
1910.63
1885.78
1916.96
1941.1
1897.41
1859.98
1878.59
1917.12
1919.01
1894.53
1971.41
1889.89
1862.18
1909.9
1875.54
1916.26
1917.16
1903.44
1881.13
1880.67
1860.4
1891.9
1885.73
1883.71
1893.43
1879.28
1859.57
1896.44
1934.07
1871.85
1886.7
1873.71
1943.23
1912.3
1926.76
1892.3
1918.54
1862.6
1892.88
1860.23
1914.07
1917.97
1914.33
1923.75
1891.66
1880.57
1858.9
1877.89
1926.73
1936.43
1887.19
1914.6
1878.81
1896.67
1861.34
1935.79
1951.93
1968.34
1936.42
1910.9
1901.25
1954.66
1954.6
1910.34
1901.85
1920.81
1886.97
1969.69
1951.65
1921.34
1964.75
1882.37
1899.43
1898.53
1916.33
1860.45
1913.04
1870.93
1934.06
1864.32
1925.01
1890.59
1880.63
1916.49
1903.05
1931.5
1916.51
1920.31
1974.21
1952.17
1961.8
1941.87
1906.27
1941.58
1878.36
1920.06
1885.22
1859.06
1871.47
1893.62
1897.93
1935.55
1892.12
1914.66
1880.61
1860.27
1945.88
1915.16
1953.72
1952.11
1903.81
1895.39
1934.31
1861.28
1896.38
1869.34
1875.48
1924.37
1902.56
1923.15
1886.98
1861.19
1972.99
1865.07
1912.72
1882.9
1881.19
1859.85
1943.6
1957.67
1903.95
1908.8
1898.46
1950.24
1919.12
1955.64
1893.51
1905.31
1922.8
1896.93
1918.96
1917.36
1860
1947.1
1885.34
1897.29
1860.88
1861.29
1884.75
1860.45
1947.99
1883
1861.32
1951.13
1973.99
1942.09
1891.94
1921.01
1887.41
1889
1935.01
1893.31
1895.57
1861.11
1941.54
1947.7
1887.23
1881.46
1973.32
1887.14
1872.27
1956.44
1912.88
1947.41
1949.76
1883.65
1936.29
1934.1
1880.56
1860.83
1881.18
1880
1888.06
1904.56
1943.22
1932.52
1897.9
1895.1
1913.71
1932.84
1906.82
1903.57
1916.78
1873.81
1957.5
1940.57
1944.85
1899.91
1912.1
1943.45
1891.25
1951.24
1862.69
1897.07
1937.98
1886.59
1885.77
1914.31
1913.58
1899.73
1911.58
1954.65
1859.83
1875
1861.48
1859
1918.99
1903.89
1884.24
1917.29
1903.53
1906.39
1929.15
1861.3
1860.13
1926.65
1916.73
1931.57
1896.71
1895.5
1950.65
1938.45
1932.58
1927.75
1864.07
1863.58
1885.11
1894.2
1966.2
1918.35
1934.15
1868.66
1917.72
1909.01
1898.26
1888.98
1955.52
1916.53
1872.82
1861.77
1887.15
1862.56
1922.95
1911.89
1861.24
1925.17
1926.86
1889.51
1859.68
1859.52
1887.5
1971.7
1886.66
1859.74
1927.21
1861.12
1888.64
1877.69
1898.17
1891.23
1918.05
1860.78
1914.24
1916.66
1891.48
1933.27
1900.52
1940.99
1916.94
1893.31
1879.73
1957.62
1871.08
1908.04
1925.65
1917.5
1904.59
1860.45
1940.02
1891.55
1895.67
1888.12
1861.4
1937.58
1896.82
1860.52
1885.57
1888.63
1860.67
1893.83
1889.87
1922.69
1934.43
1895.4
1973.81
1948.04
1904.61
1920.83
1886.87
1946.61
1908.1
1915.23
1918.94
1886.87
1879.32
1933.07
1887.3
1882.74
1911.89
1955.98
1922.28
1894.96
1923.37
1919.33
1863.94
1918.85
1862.93
1896.32
1885.49
1931.67
1944.62
1915.8
1861.26
1909.71
1919.85
1895.7
1875.07
1938.77
1925.05
1878.42
1934.62
1896.68
1925.82
1900.68
1910.19
1954.11
1935.54
1962.06
1893.6
1894.91
1890.63
1918.77
1937.62
1887.79
1862.48
1903.48
1861.42
1865.26
1918.51
1904.6
1885.92
1894.32
1918.06
1951.66
1906.63
1904.07
1918.11
1938.66
1918.31
1945.2
1943.54
1886.78
1885.92
1912.24
1926.05
1890.18
1889.46
1862.31
1971.92
1882.6
1911.36
1861.39
1968.22
1952.15
1880.19
1919.19
1886.47
1913.62
1962.7
1916.22
1888.29
1942.47
1860.07
1919.78
1878.02
1938.02
1886.94
1864.91
1971.16
1916.31
1933.55
1964.57
1902.08
1911.81
1937.19
1956.16
1955.65
1925.49
1861.51
1880.51
1888.34
1917.5
1963.69
1861.51
1893.07
1894.91
1888
1860.44
1920.27
1886.77
1885.88
1869.01
1912.45
1859.94
1911.85
1889.73
1884.09
1881.11
1960.95
1894.92
1910.57
1861.57
1860.1
1908.14
1916.17
1909.3
1918.1
1900
1905.02
1927.62
1956.46
1935.54
1896.43
1887.62
1922.2
1862.95
1916.18
1862.22
1880.67
1947.92
1883.46
1889.05
1943.75
1921.13
1915.95
1955.93
1940.01
1875.18
1913
1933.99
1868.02
1885.06
1871.42
1967.06
1915.07
1872.49
1877.1
1874.94
1905.16
1859.13
1901.18
1956.75
1879.17
1909.72
1873.45
1913.92
1925.83
1881.5
1860.22
1951.27
1918.19
1957.87
1889.25
1885.48
1891.14
1913.36
1873.89
1901.85
1861.46
1885.55
1888.84
1890.23
1971
1934.75
1923.24
1951.58
1904.07
1947.99
1913.22
1912.84
1873.19
1920.84
1861.24
1905.49
1891.27
1960.88
1964.13
1920.72
1888.8
1889.02
1861.82
1903.22
1915.3
1871.05
1915.39
1927.29
1861.32
1889.99
1896.67
1936.82
1905
1875.21
1885.48
1893.52
1882.66
1860.49
1929.84
1909.78
1889.28
1894.8
1861.18
1859.55
1932.49
1926.54
1879.2
1919.29
1860.81
1908.26
1912.05
1902.27
1937.55
1956.08
1882.54
1858.94
1886.92
1933.09
1921.66
1951.62
1974.98
1886.76
1861.72
1888.08
1860.26
1886.86
1888.29
1911.85
1917.44
1885.5
1884.17
1883.04
1887
1931.82
1862.48
1913.46
1967.49
1874.35
1882.78
1921.64
1886.55
1886.36
1971.92
1896.98
1860.36
1898.19
1898.76
1938.48
1892.85
1863.19
1885.46
1867.75
1857.88
1947.99
1918.9
1904.52
1880.95
1893.55
1915.32
1882.87
1861.18
1919.99
1892.01
1914.04
1914.88
1918.67
1861.55
1906.24
1861.78
1911.56
1886.89
1887.79
1911.45
1900.19
1858.72
1863.03
1964.51
1886.88
1864.66
1955.53
1932.18
1939.16
1895.43
1885.99
1877.7
1927.79
1919.94
1860.94
1968.18
1887.41
1939.47
1893.29
1859.46
1889.83
1876.35
1886.32
1861.33
1911.72
1953.34
1936.72
1928.64
1964.3
1958.83
1940.1
1915.62
1869.19
1887.22
1861.66
1883.15
1930.37
1919.03
1931.08
1886.66
1885.59
1869.19
1963.2
1955.09
1974.06
1894.84
1890.95
1859.03
1910.1
1862
1895.95
1898.77
1886.31
1909.55
1885.52
1911.65
1859.55
1916.36
1899.81
1903.21
1861.29
1924.41
1885.61
1921.73
1933.1
1974.74
1951.9
1969.32
1960.63
1900.18
1927.63
1859.42
1887.51
1947.57
1865.46
1894.2
1899.3
1891.76
1910.99
1911.05
1949.99
1883.82
1888.84
1899.35
1934.09
1889.09
1883.36
1912.91
1862.56
1908.35
1950.04
1861.36
1957.94
1938.33
1902.98
1912.9
1918.07
1886.11
1967.2
1884.75
1888.27
1962.96
1916.55
1912.02
1889.43
1951.38
1887.34
1959.02
1901.03
1858.61
1914.54
1876.15
1958.52
1867.18
1911.68
1886.88
1932.2
1920.85
1974.44
1951.67
1958.66
1939.47
1914.07
1904.08
1891.36
1913.45
1908.5
1888.45
1896.37
1860.54
1935.95
1890.37
1972.01
1898.02
1889.85
1887.17
1934.31
1961.91
1884.14
1928.47
1887.13
1951.93
1861.25
1905.83
1922.33
1894.56
1912.01
1956.38
1880.6
1888.53
1934.08
1886.55
1963.7
1894.49
1959.02
1891.56
1886.95
1918.62
1911.47
1888.16
1919.53
1950.27
1974.64
1922.46
1922.58
1934.02
1935.34
1915.34
1896.9
1887.27
1887.09
1864.48
1873.23
1859.21
1910.46
1860.35
1898.21
1913.24
1895.83
1889.43
1908.35
1897.24
1912.9
1947.98
1968.25
1949.81
1915.43
1970.94
1912.98
1870.83
1944.43
1896.98
1881.72
1895.51
1886.83
1886.69
1863.82
1937.52
1881.43
1863.52
1918.99
1951.69
1973.4
1963.82
1943.77
1908.23
1885.92
1886.44
1898.97
1918.62
1930.12
1938.3
1880.41
1861.76
1894.84
1887.34
1917.9
1923.17
1915.65
1889.32
1886.75
1908.79
1932.63
1880.92
1915.18
1880.61
1887
1874.58
1869.69
1891.77
1888.88
1890
1887.29
1973.18
1918.02
1946.55
1922.55
1934.35
1883.13
1896.13
1859.24
1888.63
1860.94
1865.78
1862.5
1924.41
1861.26
1905.3
1931.09
1916.68
1861.59
1933.36
1904.68
1877.63
1878.93
1945.57
1861.37
1875.58
1880.3
1952.14
1881.07
1865.34
1860.9
1887.11
1924.65
1887.07
1888.95
1929.8
1916.14
1955.61
1925.08
1901.31
1936.3
1910.98
1885.91
1886.59
1876.31
1916.97
1918.61
1936.64
1885.92
1899.32
1911.98
1962.81
1875.1
1887.05
1922.31
1885.68
1861.02
1935.04
1888.88
1920.26
1914.64
1923.34
1865.03
1891.68
1965.82
1886.85
1890.27
1922.07
1933.53
1974.71
1951.18
1939.06
1914.87
1932.69
1862.93
1915.5
1938.08
1879.27
1861.26
1910.87
1936.22
1861.17
1869.66
1887.18
1862.33
1859.7
1912.23
1860.5
1897.13
1892.82
1973.47
1905.68
1963.86
1862.73
1900.32
1888.8
1907.84
1861.24
1863.59
1923.37
1879.86
1915.58
1859.59
1940.31
1937.41
1954.52
1895.7
1864.97
1887.41
1862.58
1918.1
1888.16
1887.13
1917.94
1903.7
1893.49
1864.04
1896.46
1865.79
1930.16
1859.75
1858.99
1861.45
1918.29
1870.9
1911.66
1867.64
1924.21
1920.51
1906.06
1924
1915.77
1861.07
1880.58
1862.81
1866.52
1952.1
1898.44
1898.7
1909.91
1891.36
1862.63
1859.28
1917.31
1888.44
1920.74
1863.15
1923.34
1891.28
1897.25
1917.38
1903.01
1932.74
1919.95
1912.58
1889.18
1908.09
1922.34
1966.61
1885.97
1886.26
1959.59
1899.77
1923.88
1888.09
1888.34
1884.51
1953.03
1901.23
1950.61
1974.99
1934.08
1922.52
1886.67
1927.06
1935.36
1948.66
1884.24
1901.89
1915.53
1871.42
1910.09
1909.2
1886.98
1970.43
1949.61
1915.16
1918.02
1867.09
1887.41
1904.65
1887.16
1861.29
1933.45
1917.76
1906.62
1887.08
1898.14
1889.7
1905.44
1858.8
1916.23
1862.7
1896.84
1971.24
1969.72
1946.23
1940.18
1885.12
1917.66
1864.39
1891.43
1888.8
1892.76
1871.57
1888.02
1885.96
1886.9
1870.87
1950.99
1909.33
1960.36
1951.49
1920.48
1879.26
1965.72
1955.5
1939.35
1879.49
1886.25
1922.78
1915.91
1924.93
1968.95
1871.93
1887.74
1946.08
1859.72
1876.96
1947.39
1888.95
1909.1
1948.13
1905.4
1861.07
1951
1911.49
1881.48
1884.49
1886.69
1950.72
1957.22
1888.39
1952.06
1906.59
1893.23
1886.69
1943.34
1886.8
1889.8
1887.17
1861.17
1883.62
1895.02
1918.06
1883.19
1913.67
1860.63
1916.48
1917
1932.51
1903.82
1920.41
1915.24
1902.11
1910.38
1876.22
1920.11
1928.42
1861.73
1893.63
1886.35
1962.48
1890.46
1894.46
1949.26
1969.7
1914.47
1969.97
1948.98
1914.13
1868.34
1898.07
1935.05
1880.67
1923.49
1908.79
1908.05
1891.96
1897.7
1887.6
1861.23
1956.58
1927.15
1892.37
1947.89
1887.23
1902.23
1942.67
1966.83
1935.16
1918.49
1897.69
1886.72
1870.21
1861.57
1915.46
1916.02
1902.55
1939.94
1905.6
1880.69
1891.98
1939.65
1885.99
1969.5
1860.99
1861.48
1897.33
1887.21
1857.57
1973.1
1861.52
1924.22
1870.19
1903.88
1915.58
1936.61
1916.22
1933.08
1962.28
1950.73
1889.59
1914.27
1952.44
1879.24
1885.64
1920
1879.54
1893.65
1887.89
1888.6
1959.51
1934.38
1892
1894.83
1964.9
1887.05
1924.65
1859.52
1887.44
1866.53
1887.78
1887.65
1860.54
1916.63
1936.29
1869.63
1914.55
1898.21
1892.83
1922.25
1857.63
1908.05
1938.21
1886.51
1861.23
1914.91
1886.78
1935.47
1917.65
1892.83
1897.03
1918.73
1860.98
1954.1
1882
1935.47
1891.74
1948.97
1914.29
1969.8
1914.39
1922.88
1874.03
1887.92
1886.85
1887.25
1887.81
1933.49
1938.4
1880.69
1887.58
1902.56
1880.21
1880.66
1894.96
1892.29
1878.63
1913.72
1918.8
1888.25
1887.03
1896.25
1929.86
1862.34
1887.68
1887.62
1902.99
1952.9
1860.07
1902.97
1898.12
1881.65
1946.97
1910.03
1912.75
1950
1864.44
1958.28
1892.77
1924.45
1939.25
1887.56
1915.49
1930.52
1916.24
1887.42
1918.76
1924.55
1901.49
1861.04
1896.37
1942.07
1966.89
1932.92
1863.33
1927.65
1944.24
1891.97
1859.84
1888.88
1889.49
1895.18
1923.61
1861.13
1866.22
1885.69
1881.31
1890.01
1909.55
1889.53
1859.32
1875.64
1900.14
1945.88
1929.18
1963.64
1920.47
1924.62
1945.42
1920.92
1921.42
1965.72
1920.09
1857.6
1889.74
1967.86
1887.5
1887.19
1859.42
1921.1
1886.3
1886.38
1893.11
1865.36
1903.72
1970.65
1923.13
1861.29
1969.77
1914.54
1883.98
1891.7
1960.99
1933.89
1888.42
1866.85
1936.34
1937.46
1887.31
1906.37
1887.1
1887.34
1888.86
1860.32
1863.16
1939.63
1884.57
1925.06
1861.44
1916.53
1940.48
1935.01
1916.14
1861.11
1911.62
1887.33
1887.89
1890.27
1887.43
1887.27
1881.5
1860.64
1888.52
1904.24
1922.04
1935.96
1971.16
1897.01
1939.7
1886.7
1881.93
1886.81
1907.85
1894.82
1951.74
1929
1903.2
1891.69
1909.2
1878.66
1925.68
1909.77
1968.67
1914.41
1950.17
1923.23
1908.29
1928.66
1919.44
1886.52
1908.75
1913.65
1901.65
1886.98
1906.51
1928.53
1913.26
1920.53
1891.81
1860.17
1894.57
1919.35
1887.37
1891.65
1880.05
1922.31
1910.54
1889.13
1917.26
1970.16
1927.94
1916.41
1906.52
1922.15
1885.46
1887.34
1880.25
1919.28
1886.96
1914.37
1933.04
1861.43
1865.42
1938.54
1886.25
1889.32
1889.1
1862.44
1865.81
1918.86
1917.53
1881.91
1936.76
1887.08
1886.81
1886.83
1888.6
1902.82
1863.96
1887.74
1960.4
1896.28
1871.18
1911.52
1954.07
1899.8
1859.79
1943.4
1904.62
1887.42
1956.78
1930.58
1886.58
1886.81
1909.23
1973.44
1937.75
1866.58
1874.4
1887.21
1895.17
1954.5
1892.71
1933.79
1897.38
1867.93
1887.42
1907.59
1936.54
1885.31
1885.53
1877.77
1926.72
1893.64
1892.04
1926.05
1887.11
1887.11
1951.47
1890.56
1883.24
1892.62
1887.51
1895.59
1955.43
1960.2
1921.44
1903.93
1888.21
1886.96
1887.22
1951.34
1958.08
1862.44
1893.47
1945.84
1882.13
1873.69
1881.82
1932.09
1914.73
1950.95
1971.97
1915.27
1887.37
1888.74
1910.57
1875.01
1887.45
1878.89
1896.91
1942.28
1887.92
1935.37
1894.68
1963.22
1888.08
1860.21
1887.56
1886.84
1859.75
1915.16
1906.13
1860.77
1865.3
1895.4
1938.51
1895.16
1903.29
1878.11
1919.06
1898.65
1861.11
1888.41
1886.39
1917.01
1951.77
1859.71
1914.63
1951.08
1919.61
1861.34
1887.75
1887.76
1887.93
1944.53
1886.83
1900.55
1887.6
1868.33
1897.39
1939.95
1887.39
1889.39
1890.34
1863.22
1860.67
1960.34
1860.72
1889.99
1899.34
1891.1
1920.05
1860.64
1926.41
1892.66
1959.94
1900.57
1916.75
1898.97
1914.88
1889.58
1889.7
1917.02
1887.51
1967.07
1911.88
1923.22
1878.61
1911.61
1892.1
1859.58
1910.66
1888.79
1882.46
1892.18
1888.1
1868.74
1886.26
1892.86
1902.68
1886.58
1887.84
1860.69
1918.09
1965.6
1861.4
1861.41
1918.24
1888.85
1921.17
1888.26
1920.87
1906.09
1908
1909.05
1860.23
1860.69
1924.55
1889.24
1973.23
1888.54
1863.5
1969.09
1861.5
1949.1
1957.96
1921.62
1887.04
1920.84
1892.36
1916.68
1899.26
1934.26
1890.55
1891.64
1919.02
1886.56
1912.88
1885.62
1936.47
1878.67
1908.32
1930.1
1909.54
1897.88
1887.64
1894.67
1887.66
1890.77
1887.81
1933.44
1861.93
1909.13
1950.1
1888.44
1890.61
1914.21
1955.8
1897.46
1886.04
1886.53
1891.91
1971.37
1892.38
1913.19
1887.91
1862.11
1887.06
1890.72
1861.39
1890.13
1891.34
1959.63
1917.24
1948.81
1914.06
1969.44
1887.31
1887.48
1890.09
1886.21
1878.92
1908.53
1930.2
1888.69
1902.61
1889.82
1858.06
1927.46
1859.99
1887.63
1885.03
1873.11
1866.17
1938.9
1887.38
1892.25
1894.09
1874.39
1885.97
1899.2
1885.4
1856.6
1882.94
1911.54
1901.86
1899.96
1890.3
1860.45
1858.78
1861.67
1949.52
1861.28
1958.27
1927.93
1928.47
1889.09
1890.7
1950.46
1933.5
1938.87
1940.72
1869.82
1878.67
1857.53
1860.61
1887.71
1888.11
1916.99
1867.84
1892.6
1901.21
1891.29
1863.06
1918.44
1953.92
1887.62
1885.9
1888.13
1895
1919.82
1905.02
1893.58
1922.86
1909.18
1883.77
1917.23
1894.66
1879.62
1888.22
1922.59
1920.97
1905.82
1878.03
1919.78
1890.49
1873.4
1908.93
1866.93
1938.98
1918.1
1903.99
1913.57
1950.51
1905.15
1918.06
1972.74
1918.12
1877.83
1878.31
1918.82
1920.92
1932.82
1913.72
1974.01
1935.18
1910.25
1945.37
1897.31
1906.73
1905.16
1888.1
1913.87
1886.45
1966.21
1954.29
1884.8
1884.98
1905.74
1906.4
1951.96
1888.05
1865.82
1948.97
1917.64
1968.23
1889.53
1887.58
1919.78
1903.95
1863.69
1939.34
1889.04
1915.64
1905.49
1941.11
1960.09
1931.3
1919.98
1974.16
1951.73
1942.63
1923.28
1891.15
1861.97
1859.46
1887.46
1914.4
1939.88
1879.66
1936.61
1887.61
1862.03
1860.58
1861.53
1908.53
1943.12
1921.4
1860.42
1859.71
1890.76
1896.34
1914.29
1887.79
1920.12
1911.14
1887.05
1887.44
1895.1
1960.92
1886.12
1927.58
1955.31
1865.29
1937.76
1889.86
1974.29
1897.13
1864.76
1921.12
1891.45
1889.44
1884.18
1919.59
1893.46
1861.32
1863.48
1958.88
1919.5
1921.42
1889.18
1960.13
1887.55
1922.38
1884.11
1869.65
1863.37
1915.55
1902.15
1881.06
1886.24
1920.34
1885.17
1862.6
1884.31
1900.82
1869.77
1923.88
1863.11
1892.6
1869.16
1879.81
1896.06
1868.8
1943.12
1868.36
1875.65
1891.27
1887.71
1887.5
1884.54
1897.19
1906.57
1960.26
1921.87
1892.71
1942.14
1890.21
1892.83
1913.18
1948.13
1968.8
1861.65
1878.05
1904.96
1920.3
1861.81
1907.6
1887.53
1885.66
1861.94
1886.85
1968.47
1873
1866.52
1950.85
1914.67
1919.69
1961.29
1861.71
1933.91
1943.06
1887.73
1969.97
1913.16
1881.2
1896.25
1866.04
1938.27
1875.56
1957.25
1894.01
1895.21
1945.62
1879.42
1914.87
1914.4
1884.79
1887.07
1969.31