/*--------------------------------*- C++ -*----------------------------------*\
| =========                 |                                                 |
| \\      /  F ield         | OpenFOAM Extend Project: Open source CFD        |
|  \\    /   O peration     | Version:  1.6-ext                               |
|   \\  /    A nd           | Web:      www.extend-project.de                 |
|    \\/     M anipulation  |                                                 |
\*---------------------------------------------------------------------------*/
FoamFile
{
    version     2.0;
    format      ascii;
    class       volScalarField;
    location    "2000";
    object      k;
}
// * * * * * * * * * * * * * * * * * * * * * * * * * * * * * * * * * * * * * //

dimensions      [0 2 -2 0 0 0 0];

internalField   nonuniform List<scalar> 
26307
(
0.00331081
0.000381462
0.000927339
3.50058e-05
0.000819849
0.00112963
5.82962e-05
0.00706324
0.000152479
0.00584753
0.00225757
0.00161462
0.000417582
0.000556598
5.95976e-05
0.000481078
0.00158237
0.00012933
0.000905774
0.00699942
0.00472024
0.0024424
0.000229694
0.000875711
0.000274145
0.00438509
0.00525075
1.35262e-06
0.000987526
0.00487443
7.48371e-05
0.00811362
0.000139158
0.0017191
0.00195649
0.000974665
0.00493389
0.00108954
0.00131015
0.00757108
0.000101828
3.8503e-05
0.00293577
0.000565653
0.000621273
8.6969e-05
0.0014664
0.00626181
0.00700032
0.000315756
7.77675e-05
0.000325703
0.00416377
0.00115914
0.00130607
0.00186989
0.000875049
0.000362243
0.00419099
0.00108808
0.000141916
0.000111408
2.18201e-05
0.001217
0.00733466
1.4839e-06
0.00399698
0.000687256
0.00116744
0.00446564
0.0103146
0.000178345
0.00377997
3.18269e-05
3.03893e-05
0.00395186
0.00156886
0.000392642
0.00333503
0.0015432
0.000238953
0.00313897
6.91367e-06
0.00751883
0.0031242
0.00516149
0.00147987
0.00214006
0.00375085
0.000100442
0.00359024
0.000656955
0.000250445
0.000506662
0.000977186
0.00488611
1.01897e-05
1.42536e-05
0.00603876
0.00168503
7.63631e-06
0.000149282
0.00325526
0.00343666
0.000958606
0.000128057
7.90287e-05
0.00189982
0.00367402
0.00159096
0.0085319
7.7424e-06
0.000971678
0.00948085
0.000271981
7.95373e-06
1.02333e-05
0.00100378
0.00750803
0.00328304
0.00421698
0.000968856
5.71975e-05
2.0612e-05
0.000209308
8.89173e-05
0.0106915
0.000251355
3.00037e-05
2.60389e-06
2.91243e-06
1.27671e-06
0.00805101
0.0005692
0.00225746
0.00330712
0.00417927
0.00368067
0.00504282
0.000638058
0.00325895
0.00209838
0.00158834
5.58063e-06
0.00278421
0.00850124
0.00494518
0.00062392
0.00019176
0.000991981
0.00794513
0.000418328
0.000777459
0.00467347
0.00718294
0.00642525
0.000326955
0.000168922
0.000431148
6.60122e-05
0.00145074
0.00395849
0.0036715
0.00610523
0.0037026
0.00864183
0.00650864
0.00832446
0.000122016
0.00719868
0.00620324
0.00527056
0.00365072
0.00308928
8.20494e-05
0.000339439
1.82723e-06
0.00369614
0.00541268
0.00952743
0.00154698
0.000509142
0.00636971
0.000158969
0.00072269
0.00164044
0.000581035
6.68231e-05
2.62543e-05
0.00112087
0.00102896
0.000101771
0.000386288
0.00385459
0.00119656
0.00140795
1.10109e-06
0.0104261
0.000336289
0.0041554
1.2483e-05
0.00311092
0.000658163
4.20596e-05
0.00053582
0.00326882
0.000377674
4.65289e-06
0.00615169
0.000593186
0.00192929
0.00528557
0.0014229
1.66305e-05
0.000342624
0.00738253
0.00208191
0.00621279
0.00634328
9.56395e-05
0.00435547
0.000283072
1.08886e-05
0.00639394
0.000274133
0.00360606
0.000740905
0.00581834
0.00868097
0.000567865
0.00538011
0.00104404
0.000539181
0.000643854
0.0028641
0.000821168
0.00384635
0.000306375
0.000563841
0.00233921
5.3399e-05
9.23886e-05
0.000452217
0.00446395
0.00457552
0.00154198
0.00809502
0.00417609
0.00472465
0.00443346
0.00469609
0.00417266
7.14926e-07
1.07572e-06
1.33464e-05
6.6918e-06
4.99229e-06
4.9577e-05
3.07251e-05
0.0054782
0.00336792
7.82558e-06
0.000280185
0.000189403
0.00511469
0.000181196
0.00357908
0.00381368
0.00315019
0.00386045
0.00381578
0.00808875
0.00740832
0.00011313
0.00539775
1.78263e-05
0.00127598
0.000224203
0.000185048
0.00037966
0.00287096
0.00344483
0.00861937
0.000111132
0.000133248
0.0077759
0.00293414
1.85618e-06
4.46954e-05
0.00449424
0.000375411
7.32802e-06
0.00324709
0.0060411
0.00630903
0.00597755
0.000596401
0.000612449
0.00527326
5.25291e-07
0.00600954
0.00120983
0.00702531
0.00646092
0.000147696
2.7999e-05
0.000110856
0.00059681
0.00209473
1.72544e-06
0.00377602
4.58612e-07
0.00208444
0.000557331
0.00022791
0.000130217
3.58394e-06
0.00251349
0.00487644
0.000243996
0.000455379
0.00662927
0.000175648
0.00395269
0.000429208
7.89433e-06
0.000678056
0.0090667
0.00401438
0.0050467
0.00447625
0.000131339
7.28463e-07
0.0055849
0.00679405
1.69919e-05
0.00354466
0.00277054
0.00556763
0.00493936
0.000152046
0.000180845
0.00336175
0.0044165
0.000134889
0.00404296
0.00492658
0.00588637
0.00587452
0.00579826
0.00456302
0.000764433
0.000436604
0.00119871
0.00595231
0.0065307
0.000554317
1.29021e-05
0.000636884
0.00296202
0.0025573
0.00127251
0.00451164
8.06256e-05
0.000124761
0.000201096
0.00172948
0.004136
0.000299617
0.00485468
0.00530496
0.00742654
0.00147054
0.00630933
0.00684598
0.00428741
0.0036666
0.00597515
0.00534065
0.000246738
0.00968021
0.00232609
8.98661e-05
0.000146411
3.41236e-05
0.00846989
0.00399603
0.00543903
0.00485627
0.00334211
0.00400744
0.00487013
0.000798018
0.00112004
0.00973659
0.00429243
0.000139256
0.00111449
0.00103881
0.000145366
0.000919564
0.000324509
0.000338819
0.00237469
0.000919407
0.00583589
0.00304003
2.30088e-07
0.00587093
0.000126823
0.00012945
0.000543131
0.00346913
0.00403833
0.000260391
0.00078473
0.000113785
5.64572e-06
4.66579e-05
0.00840767
0.000171358
2.26071e-05
3.70445e-05
6.2139e-05
0.00632025
0.003828
0.000157752
0.000198947
0.00339298
0.000229955
0.00327961
0.0016799
0.00605743
0.00431875
1.38231e-05
0.00688239
0.000184936
0.00354094
0.00427487
0.00457553
0.000235001
0.00409196
6.75946e-05
0.00148479
0.00478008
0.000101124
0.00164756
0.00349965
0.000621636
0.00332177
0.00446915
7.85272e-06
0.00841701
0.0010339
0.00348088
0.00274886
0.0057965
0.00175633
0.000823216
5.79745e-07
0.00160626
1.15117e-06
0.00028919
0.0023596
0.00266655
0.00540968
0.000174941
7.56968e-05
4.57607e-05
0.000564668
0.00249778
0.000676854
0.00495415
0.00671363
0.00356587
0.00300488
0.00252408
0.00149738
0.000125042
0.000486785
0.00722247
0.000342115
5.1849e-05
0.000787012
0.000741762
0.00211245
0.00517488
1.24243e-05
0.00457488
0.0023328
0.00405859
0.0058963
0.00761993
0.000140686
0.000328076
0.00888207
0.00689273
0.0034294
5.86976e-05
3.44508e-06
0.00319355
0.00452836
0.00369417
3.06708e-08
0.00737837
0.00576408
0.00341559
0.00178207
0.00436164
0.00367438
9.37482e-08
1.21956e-07
1.8883e-06
2.2468e-06
0.00423483
0.000395529
1.20704e-05
0.00807468
0.00671755
0.000876653
9.46973e-05
0.000932553
0.00675625
0.000218027
0.000386575
0.000259641
4.20455e-06
0.00648241
0.00831876
0.0002184
0.00256533
0.00573969
0.00723346
0.00189288
3.53534e-06
0.00634369
7.44471e-05
0.000519709
0.00415503
0.000380341
0.00360526
0.00546541
0.0042811
0.00715236
0.0012776
0.00785345
8.00217e-05
0.00236596
0.000174616
0.00623988
1.24548e-05
0.00572525
6.51634e-05
0.000556841
0.00011952
0.00278394
0.00237466
0.00162808
0.00187703
6.15316e-06
0.00214185
0.00231596
0.00865725
0.000709386
0.00140923
0.0076136
2.387e-05
0.000632275
0.00186436
0.00474792
5.43189e-06
0.000162073
0.00134633
0.0011152
8.49666e-06
9.66473e-05
0.000129068
0.00395378
0.00464717
8.21256e-05
0.00364046
0.00381806
0.000105811
2.31038e-05
2.7924e-05
0.0061222
0.00438197
0.00653494
0.000137498
0.000118282
0.000292007
0.00661666
3.91715e-05
6.42285e-05
0.00123241
0.00463817
0.00876707
0.00655296
9.11189e-06
0.000437103
0.0036562
0.00332977
0.00651033
9.41131e-05
0.00351516
0.000105111
1.33858e-05
2.26403e-07
3.08875e-07
3.9239e-07
3.05355e-08
1.15075e-08
0.00431776
0.00393357
0.0100464
0.005556
0.00891709
0.00339641
0.00208652
0.00017597
0.00440104
0.00753707
3.32318e-05
0.00588084
0.00374828
0.00367029
0.00800166
0.00389281
4.82564e-05
0.000360306
0.0031896
0.00712913
0.00019637
0.00320197
0.00365906
2.17193e-05
0.00344276
0.00262288
0.00237167
0.00017939
0.00527515
0.00179233
0.00416604
0.000186519
0.00286326
0.00542648
0.00708071
0.00419731
0.00299772
0.00025921
0.00337742
0.00732284
0.000300161
8.6892e-05
0.00247072
0.00340451
0.00351707
7.3352e-06
0.00319082
1.03279e-06
0.00362891
1.31441e-05
0.00337347
4.76755e-05
0.00313209
0.00575364
0.00196862
0.000505139
0.00024088
0.00392288
0.000728501
0.000106702
3.08121e-05
6.90465e-06
0.0011801
9.76214e-05
0.00107661
0.00743731
0.000859266
0.00432839
0.00813259
0.00399805
1.35967e-06
0.000136905
0.000910107
0.000364067
9.69929e-06
0.00146024
0.00380855
0.00665064
0.00523867
0.00018476
0.00670954
0.00042317
0.00175674
0.00063136
1.42498e-05
1.1371e-06
0.00215026
0.000491361
0.00730683
7.1802e-06
0.00503851
0.000169987
5.35289e-06
0.000848639
0.00600966
0.00849231
0.0070372
0.000388841
0.00515854
0.00574915
0.00558976
0.000302886
0.0013712
0.00477604
0.00196202
0.00402071
0.00501603
0.000262079
0.00689165
0.0010415
0.00838305
0.00238619
0.00747254
0.000847374
0.00109859
0.00754101
0.00316709
9.06276e-05
0.00314333
0.0004768
0.00246082
0.00382946
0.00324306
0.00330059
0.00560655
0.00224104
0.00303271
0.000384363
0.00659269
6.32141e-05
0.00824188
0.00314961
0.00358625
0.0029029
0.0030101
0.000963689
0.00112801
0.00079375
1.69049e-07
0.00461535
0.00176489
0.00645547
0.0045813
0.000650171
0.000709806
0.00206787
0.00415647
3.90578e-05
0.00372097
0.00510714
3.80725e-09
5.14874e-05
8.67654e-05
0.000637648
0.00703471
0.00465516
0.0054353
0.00405273
0.00431227
0.00609696
0.000548647
0.000985145
0.000566689
0.00181218
0.000293081
0.00209993
0.00182597
0.00611198
0.000513677
0.0001665
1.27197e-05
0.00183012
0.000269513
0.000293053
2.4729e-05
0.000206094
0.00999399
0.00344817
0.000354836
3.00106e-05
0.00409772
0.00023466
0.00475214
0.000348163
0.00196124
0.00391687
0.00191731
0.000550542
0.00360622
0.00255498
0.00238392
0.00791133
0.00810287
0.000215987
0.00330372
0.000186667
0.00177435
0.00301666
8.51448e-05
0.000356502
0.00686129
0.00217517
0.00817234
0.00396435
0.00456668
0.00334999
0.00453722
0.000561224
0.00464858
0.00573796
0.000907222
0.000160072
0.000123866
0.00350746
0.000340691
6.35884e-07
1.07008e-05
0.00147488
0.00149502
0.00227053
0.00137966
0.00946292
0.00674161
0.00190163
1.38193e-07
0.00455359
0.00542415
5.34248e-05
9.50248e-07
0.00137382
0.00470274
4.93816e-06
0.00305982
0.00747131
0.00612492
0.000411134
0.00364616
0.00427099
0.000116557
0.00318641
0.00426698
0.00324958
0.000914606
0.00456941
0.00337381
0.000630859
0.000622873
0.00010831
0.000103605
0.00162346
0.00400841
3.09544e-06
2.13659e-05
0.00389139
0.0103043
1.12325e-06
0.00513656
1.19379e-06
4.37855e-08
1.13427e-07
1.16846e-06
1.15437e-05
4.75057e-05
3.20622e-05
5.74633e-06
0.00200443
0.00437184
0.00698166
1.38292e-07
0.00177
6.25929e-05
0.000800391
0.00487697
0.00481968
0.00868129
0.00160688
0.00018894
6.22131e-05
0.000770514
3.24342e-06
0.00880112
0.000184722
0.00018959
0.00709406
0.0036001
0.000780158
0.00539545
0.000139489
0.00737503
0.00367927
2.39677e-05
0.00328553
0.00348645
0.000543362
0.000186433
0.00405976
0.00358971
0.00429443
0.000338178
4.94214e-08
0.0020927
0.000380668
6.75005e-09
4.93315e-05
0.000108994
0.000515618
0.00700531
0.00373049
2.99578e-05
0.00378975
0.00100787
0.000268556
0.0074674
0.00297192
0.0055645
3.1776e-06
0.00221491
0.000106167
0.000174274
0.000524493
0.00276236
0.00650189
0.0043707
0.00854493
7.94195e-06
0.000959592
0.000102925
0.00684965
0.000421243
0.00332352
0.00165866
0.000526307
0.000586998
0.000225349
0.00975089
5.47471e-06
0.000825647
0.0048351
0.00792279
2.94454e-06
0.00620856
0.00541698
0.00352754
0.00210698
4.42268e-05
0.00919813
0.00164696
0.00554161
0.00163762
0.00067379
0.00678474
0.00346236
0.00657805
0.000670256
0.000960913
0.00196802
0.00121075
5.37166e-05
0.000116833
1.41697e-05
0.00482075
0.00301718
0.00107643
6.31719e-05
6.95199e-06
9.03805e-06
9.67489e-07
5.96748e-07
1.22226e-05
0.00723024
0.003857
0.00740559
0.00208248
0.000412
7.13424e-06
1.43092e-06
0.00337208
0.000524566
0.00130816
0.0033786
0.00115774
0.00628349
0.000233852
0.00305153
0.0066024
0.00141991
0.00555829
0.00487945
0.00238437
0.00353575
0.0012106
0.000820874
0.00494063
0.00013322
0.000286382
0.00732307
0.000130127
0.000477291
0.000468351
0.00228965
0.00264079
0.000900729
1.68439e-05
0.000237711
0.00517844
4.56127e-07
0.000600434
5.33114e-05
0.000359285
0.000452162
0.0019593
0.00195968
0.0042037
0.000147313
0.000309057
0.00312467
0.00887403
0.00605105
0.00621858
0.000143581
0.00247806
0.00373918
0.000275184
7.45445e-05
0.00279255
0.00102485
0.00358702
0.000256105
0.00686113
0.00254247
0.000255505
0.000530273
0.000177315
0.00590172
0.000592881
0.00587423
0.00614413
6.63061e-06
0.00012241
0.000859024
0.000205443
0.00894071
0.00385269
0.00465969
0.00280445
0.00445533
0.00421119
0.00435874
2.03752e-07
0.00341056
0.000132355
0.00454808
0.000146994
0.00468043
0.000100621
0.00727056
0.00620169
0.000195368
0.00709654
0.00266906
0.00327528
0.00804499
0.00025666
0.000348737
0.00367468
3.86642e-08
0.000317961
0.000102024
0.00652127
4.67023e-06
0.000302469
8.09449e-05
0.00732937
0.00246055
0.000394188
4.99926e-05
0.000247353
1.6392e-05
0.000137541
0.00342153
0.0104543
3.76971e-05
0.00432674
0.000418153
0.00883407
0.000295106
3.06377e-05
0.00379071
0.00347961
0.0101512
0.00920616
8.72509e-05
0.00344499
0.000473752
0.00193898
0.00223396
0.000981437
0.000690048
0.00304061
0.00144095
0.00261788
0.000915119
0.0038399
0.00770949
0.00305175
0.00717918
0.000520344
0.000155386
0.000824275
0.000742499
0.00293308
0.000477496
0.00210128
0.000967633
0.00340061
0.00394505
0.000901715
0.000202626
0.00565425
0.000124744
8.54254e-06
0.00518383
8.21666e-05
0.00382391
0.00139133
0.00168102
0.000597218
0.000637852
0.000654438
0.00634841
3.12661e-06
0.00434666
0.00449053
0.000322734
0.00228405
0.00154472
0.00222232
0.0024723
3.13998e-06
0.00241216
0.0058617
1.54823e-05
0.00252615
0.002459
0.00159283
0.00184912
0.00371807
0.00190768
0.00115244
1.80241e-05
0.00248357
0.00899034
0.000640422
3.81807e-05
0.00340215
0.00305077
0.00444714
0.00278582
0.00301964
0.0035099
0.000811597
0.00257797
0.000579796
0.00069132
0.00403327
0.00284046
0.00010517
0.000365158
0.00210493
0.00173671
6.83991e-05
0.00586422
0.00279552
0.00687371
0.00434444
0.00419995
0.00208831
0.00228376
0.00261597
0.00125396
0.00918188
0.0012176
0.00860142
7.1755e-06
2.28983e-07
0.000171377
0.00257638
0.00415627
0.00205254
4.54059e-05
0.00851807
0.00191763
0.00220991
0.00398365
0.00127322
0.00115414
0.000383322
0.00232545
0.00522914
0.00410225
7.8896e-05
5.67671e-05
0.0023689
0.00333127
0.00841766
1.59838e-06
1.50379e-06
1.9813e-05
3.48097e-06
4.11796e-06
4.34583e-05
3.77698e-05
0.000435507
0.000101483
1.01395e-05
0.00117717
0.00478706
0.00734006
0.00301431
0.00199134
0.000528676
0.00036171
9.96841e-05
0.000341655
1.53274e-05
0.00338537
0.00253542
0.000209464
0.00585401
0.000836282
0.00108607
0.00538358
7.19824e-05
0.000104334
0.00197891
0.00381809
0.000332028
0.0029673
0.000720409
0.000578456
0.000361279
0.000912947
0.000114364
0.00270413
0.000992031
0.000152861
0.00298985
0.00418085
0.000592438
0.00568763
0.00272383
0.00165418
0.000134799
0.00204187
0.00382079
5.82349e-05
0.00040247
0.00269049
6.17993e-05
0.0029216
0.0026564
0.00759852
1.65166e-05
0.000925277
4.05845e-05
0.000377445
0.000203448
0.00029162
5.62078e-05
6.03118e-05
0.00376334
0.00358892
0.00874177
0.00240695
2.23136e-06
0.00227669
5.25458e-05
0.00311535
0.00842292
0.00267506
0.00248284
0.00301241
0.00488709
0.00260895
0.00248712
0.000817427
0.00270784
0.00363261
0.00341863
0.0013513
0.00521817
0.00439216
0.00468946
0.00333138
0.000204181
0.00199983
0.00122328
0.00216627
0.000453392
0.000437815
0.00840856
6.10259e-05
0.000138295
0.000394331
0.000706089
0.000127753
0.000966263
0.000102559
0.000601377
0.000114655
0.00365401
0.00203795
5.87305e-07
0.00205214
0.00232493
0.00476258
0.0016246
0.00349278
0.00845746
2.26332e-06
6.30991e-07
4.80953e-07
0.000990311
0.00476289
0.0060171
0.000571533
0.00133865
0.00193406
3.87334e-05
0.000953694
0.00321886
0.00241876
0.000821868
0.00385624
9.85763e-06
0.00257974
0.00287247
4.05986e-07
1.74485e-08
0.00296093
0.00903555
0.00436926
0.00334433
0.0035331
2.28889e-06
0.0035169
0.00037734
0.00407654
2.60796e-07
0.000640919
0.00284391
0.000499218
0.00211465
0.00243641
0.00352282
0.000330693
0.00568988
0.000816075
0.000207381
0.000159401
0.00399841
0.000719638
0.00397614
0.00318483
0.00303727
0.00888064
0.00455914
5.29842e-05
0.000555655
0.00360398
6.49442e-05
0.002511
0.00503883
0.000430512
3.2455e-05
0.00252112
0.000362049
0.00577015
0.000664378
0.00107536
0.00161469
0.000742973
0.0002333
0.00428264
0.0054203
0.00176077
1.77298e-05
0.00411498
0.00080664
0.000191034
0.00426528
1.39764e-05
0.00314147
0.000163669
0.00129908
0.00117629
0.0010249
0.00219453
0.000182482
0.00225259
0.00245187
0.000200225
0.0023828
0.00374823
0.000176285
0.000128646
0.000161453
0.00175149
0.00178719
0.000966983
0.00923652
0.000859225
0.0013668
0.00794057
0.00217938
0.00216347
0.000142118
0.000273252
0.00331863
0.000394549
0.000557733
0.00704754
0.000902972
1.98951e-07
0.00338221
2.20892e-05
0.00301069
0.00173436
0.00194131
0.00234666
0.00355409
1.71692e-06
0.00189136
0.000286264
0.000173764
0.00254814
0.0019576
0.00291343
0.00701969
0.00560714
0.0103034
0.000118517
0.00336127
1.19921e-05
0.00011559
0.00204618
0.000561827
0.000650334
0.00342048
0.00656077
0.00726089
7.25832e-06
6.54708e-05
6.59635e-05
0.00337931
0.00635535
0.000457448
1.46727e-05
0.00120988
0.000373619
4.46049e-09
0.00188611
0.00465982
0.00121828
0.00132405
0.00307302
0.000362305
0.00365583
0.00165124
0.000173088
9.50586e-06
1.37119e-05
0.000142675
0.000419374
0.00257306
0.000123238
0.000695565
0.00674166
0.00295007
0.00304035
0.00272107
0.00324653
0.000526164
0.000315573
0.00303726
0.000366645
0.00444728
0.00281896
0.00324937
0.000323624
0.000717937
0.000304517
0.00101624
0.000460506
0.000615952
0.00138595
0.000922955
0.00430651
0.00468431
6.18967e-05
0.00487556
0.000215272
0.00196167
2.0311e-05
0.00222124
0.00126698
0.00661947
0.000163652
0.0033107
0.00646266
0.000174409
0.000681257
0.00024913
0.00332181
0.00392368
0.000760714
0.00165947
2.02028e-05
0.00724388
0.000733129
0.00819901
0.000356317
0.0046215
0.0046121
0.00499735
0.0024261
0.00610082
0.00395389
0.00633008
1.3971e-05
0.00357698
0.00574104
2.0127e-06
0.0011881
0.00330953
3.18895e-05
1.11643e-05
0.00596091
0.00611563
3.33287e-05
5.34178e-05
0.00655505
0.0037217
0.000578587
0.00634869
0.000525674
0.00319742
0.000162473
9.90043e-06
0.00376356
0.00153124
0.00757745
0.0046651
5.21059e-07
0.000424555
0.0011391
0.000970573
0.0026658
0.00343746
0.00329919
0.00179539
0.00135225
9.45416e-06
1.32998e-05
0.000274878
6.03682e-06
0.000627807
0.000414841
0.000603219
0.000660717
0.000326182
0.000530965
0.00238965
0.00276346
0.000277853
0.00065336
0.0075657
0.00086212
0.00699461
0.00313138
0.000816497
0.000469542
0.00257849
0.00242682
0.000434863
0.000220705
0.000367652
0.000997264
0.00385597
0.00680377
0.00246956
0.00663938
0.0021731
0.00353421
0.00336092
8.06494e-05
0.00617124
0.00589054
0.000534658
0.00713905
0.00327096
0.00241718
1.40063e-05
0.00386732
0.000612288
0.00384762
0.000417195
0.00393286
0.00261833
0.00381442
0.00194181
0.00160813
0.00186058
0.00178136
3.80918e-06
3.57326e-06
0.00208006
0.000532437
0.00757376
0.00495661
0.000308226
0.00185258
0.000616842
0.00332508
0.000861855
4.38073e-06
0.000368364
0.00392157
0.00152944
0.00133498
0.00302817
0.000288727
0.000217524
0.000109182
0.00185843
0.0019138
0.000317001
0.00412381
1.40488e-05
0.00710979
0.000791294
0.000321399
0.000656412
2.2057e-05
0.00733326
0.000383433
0.00116097
0.00322071
0.00386256
0.000622118
0.00932313
0.00204688
0.00206378
0.00442897
0.000124824
0.000179243
0.00315551
7.0829e-06
0.00660276
0.00259013
0.00415213
0.00259503
0.00199182
0.00216273
0.00249545
7.94041e-05
1.13102e-05
0.00369314
0.00145942
0.00185459
0.000202672
5.69738e-06
0.00209465
0.00380372
5.87648e-05
0.00560183
0.000145684
0.00461302
0.00216241
0.00434862
0.00114504
0.00189519
0.00218006
1.07814e-06
0.000363094
0.000170614
0.000178621
7.26278e-08
0.000244248
0.00377951
0.000593503
0.00383123
0.00531359
1.24643e-06
1.25125e-05
0.000179798
0.00443355
0.00162926
0.00199074
0.00659014
1.50499e-05
0.00320004
0.00204523
0.00523541
0.000487097
0.000207095
0.000970929
0.00246141
5.75623e-05
0.000590193
0.00102001
0.000275396
7.50847e-05
0.00172301
0.0082044
0.000780911
0.000946353
0.000205775
0.000619487
0.0085492
0.000164202
0.00489654
0.0006225
0.00240224
0.00276592
1.14749e-06
0.000168611
0.000367695
0.000844179
0.00336304
0.00034892
0.0102612
0.000475134
0.000178853
2.52297e-05
1.39916e-05
0.00561011
5.95895e-06
0.000108105
0.000173832
0.000811971
0.00663944
0.00745169
2.43464e-06
2.10251e-06
9.96168e-08
1.52299e-07
2.09254e-07
3.04538e-07
2.3946e-08
1.77577e-08
0.00827304
0.00341309
0.00314969
0.00814521
0.000146804
0.000149189
0.000410082
0.000122526
0.00303833
3.49863e-05
0.00015393
0.00239948
0.000128278
1.3533e-07
0.0066775
0.0013608
0.000190636
8.48823e-05
0.000238308
0.00248849
0.00101884
0.00605504
0.000251765
0.000224554
0.00229252
0.000138277
0.00224239
0.00547251
0.00226661
0.00871695
8.61736e-06
2.7895e-05
0.00334236
0.00225901
0.0037297
0.00447327
0.00280293
0.000556236
0.000125936
0.00208322
0.00570835
0.00458514
0.00127798
2.45588e-05
0.00217405
0.00522343
0.00266512
1.28837e-05
6.60797e-05
9.12012e-07
0.00131499
2.98581e-05
0.00527256
0.00202934
0.00306448
0.00034663
5.55985e-05
0.00124459
0.000226005
0.00203064
2.42548e-05
0.00265642
0.00417466
0.000143914
0.000301107
0.00412455
0.000307338
4.72903e-06
0.0023194
0.0033528
0.000198131
0.000120065
4.15811e-05
4.87973e-06
2.32331e-05
5.34601e-05
1.80208e-05
3.67059e-05
0.00103837
0.00299535
0.000290048
0.00681248
3.11059e-06
9.46308e-05
7.47121e-06
0.00101306
0.00255492
0.00597879
0.000220947
0.00132843
0.00137169
0.000500565
0.00518394
0.000128939
0.00523103
0.00123046
0.00100439
0.00762124
0.00244501
0.002847
8.2159e-06
7.68096e-05
7.55037e-06
3.21367e-07
5.61613e-07
1.93428e-05
1.28566e-05
9.22197e-05
0.000424584
0.00526203
0.000120478
0.00349147
0.00271671
0.00437707
0.00408394
0.00335919
0.000737535
0.00730188
0.000101644
0.00757446
0.00351485
0.000349558
0.000452459
4.7148e-05
0.000101554
0.00302882
0.00345588
0.000191834
0.0035282
0.0025551
0.0086689
0.00901749
2.2832e-06
0.00503239
5.53395e-07
0.000190791
0.00359905
1.68706e-06
0.00371528
0.000557329
0.00740422
0.00185686
0.00348297
0.000366228
8.55219e-05
0.00287207
0.00336383
0.00408379
0.000143728
9.98663e-05
6.88043e-05
0.00107797
0.000179971
0.000289399
0.00442933
9.7525e-05
0.000427983
0.003451
0.000341721
0.00386352
0.000566145
0.00315764
0.00342276
0.00484559
0.0037489
2.39898e-06
0.00173188
0.00304796
1.15878e-05
9.5663e-09
0.000507801
0.00244325
0.000146523
0.00213778
0.00281213
1.78724e-06
0.00320057
0.000430882
0.0049704
0.00063016
0.000323052
0.00405344
0.00187279
5.26563e-05
0.00438447
0.0106456
7.58444e-05
0.000474907
0.0002985
0.000249744
0.00559427
0.000124304
3.8003e-06
0.00805395
0.00317098
0.00520778
0.00949272
0.00320627
0.000353394
0.000314706
0.000301417
0.00133623
0.00439967
0.000383701
9.10886e-05
0.00253309
0.00309892
0.00266226
0.00315708
8.4396e-05
0.00013687
0.000309333
0.000125121
0.000194883
0.000494211
0.00301037
0.000150314
0.00335984
0.0028838
0.000142769
0.00159379
0.00627487
1.85166e-05
0.0003665
0.00122511
0.00132027
7.02841e-05
0.0032767
0.00678185
0.00120431
0.00328875
0.00159288
0.00165361
0.00418383
0.00233821
0.00269538
0.000642418
9.15718e-05
0.00332956
0.00316971
0.000120495
2.03891e-05
0.000172619
0.000515537
0.00640412
0.000343277
0.000190239
0.000528827
0.000813937
0.00795787
0.0058449
0.00353468
0.00197439
4.41587e-06
9.16401e-05
0.000558462
0.00560404
1.50656e-05
0.00133084
0.00126122
0.00245501
0.00027237
0.000126325
0.00673369
0.00478345
0.0021382
0.00345121
0.000210495
0.000493522
0.00331346
0.000228974
0.000193663
0.00281456
0.000792005
0.000663853
0.00883554
9.67805e-06
0.00778977
0.00507908
0.00024292
0.00543796
0.000698525
0.00566553
0.00234061
0.00342429
7.51768e-05
0.00319324
0.000326281
0.000389649
0.00279605
0.00057807
0.00210362
0.000243237
1.05572e-05
0.00293932
0.010083
0.000112584
0.00471465
0.00110731
0.00102067
0.000291748
0.00215805
0.00346711
4.61307e-06
0.00204302
0.00232755
0.00428204
0.00119211
0.000434716
0.00678191
0.00375074
0.0070803
0.00438758
0.00364371
0.00298763
0.00233864
1.35133e-06
1.5264e-06
0.00375018
2.17651e-08
1.41877e-05
0.00265973
0.000124853
0.00186957
0.000333307
0.00105668
0.000712219
0.000114399
0.00702641
0.00252517
9.54505e-05
0.000363863
0.00433018
0.000522067
3.58213e-05
0.000159455
0.00226623
0.000204991
0.000214839
0.00627755
0.000429948
0.00302285
0.00113735
0.00033147
7.25325e-07
0.00026672
5.19918e-05
0.00375724
0.000719061
0.000280182
0.00309991
0.0109767
0.000485274
0.000865839
0.00495413
0.000314835
0.00258042
0.00017882
0.000196941
9.04221e-05
4.66011e-05
2.03213e-05
8.43692e-05
0.00601844
0.00352502
0.00324676
0.000129107
0.000312073
0.00213461
0.0060406
0.00157823
0.0033529
0.00522098
0.00224907
0.00259958
0.00539045
0.00307881
8.22025e-05
0.000636449
0.00143691
0.00259895
0.0022607
0.000632802
0.000271948
0.000392754
1.23713e-06
0.00446615
0.00451498
0.00063541
3.18289e-06
0.00287179
0.00365263
0.00434643
2.52177e-06
0.00739311
0.000619411
0.00390919
1.43952e-06
9.7232e-05
0.00195632
0.000211259
0.00562901
0.000470551
6.4473e-05
4.6716e-05
0.00384684
3.42146e-07
0.00310458
1.78133e-06
0.00607685
0.000344156
0.00706843
0.00557157
0.000577336
0.000289185
0.000577147
6.79946e-05
0.000209007
0.000145137
2.90225e-05
4.50925e-05
4.46032e-05
0.000219153
0.00329524
0.00376696
0.00377035
7.9262e-05
2.31977e-05
0.00455257
0.00673913
0.00238553
0.000851306
0.00326013
3.98892e-07
0.0069604
0.00449412
0.00780592
0.000435715
0.0034803
0.00057619
0.00853943
0.00373321
3.87244e-05
0.000124652
0.0024435
0.000753166
0.00345334
0.00421177
0.000477573
0.000323365
0.000768996
0.00218104
0.00431463
0.00249137
0.00053867
4.45503e-05
0.000285717
0.000855879
0.00199053
4.22559e-06
0.00492958
0.000271235
0.00330901
0.00283429
0.000331724
0.00613478
0.00344562
0.00039508
0.000215863
0.000236142
7.25035e-05
0.000357515
0.0104215
0.00398229
2.22964e-05
0.00726965
0.00737475
0.00281736
2.54391e-06
7.36158e-07
0.00910672
0.00700251
0.00404661
0.000660832
0.00350247
0.00330375
0.000197901
0.00372563
0.000920384
0.00891752
0.000585048
1.00085e-05
0.00852862
0.00517677
7.23968e-05
0.000165032
0.000111178
0.0034236
0.00423791
0.0023666
0.00034813
0.0024481
0.00454817
0.00223688
8.81563e-05
0.00294112
0.0020255
1.40315e-05
1.81071e-06
1.79192e-06
1.29812e-07
0.0022143
0.00010675
0.000390901
0.000429883
0.00786129
0.000137355
0.00397761
0.00160385
0.00216171
2.63331e-06
0.000417841
2.33642e-06
0.00916186
0.00438403
0.00329078
0.00324475
0.000173911
0.00893436
0.000152094
0.000790371
0.00654417
0.00210324
0.000167291
0.000518315
5.14252e-05
0.00459753
0.00423704
0.00240024
0.00377948
0.00364734
1.37099e-05
0.000834491
0.00282085
0.00200677
0.00361572
0.00495303
0.000173317
0.000211859
0.00925685
1.26886e-05
0.00383374
0.000488099
3.4213e-05
6.9601e-05
7.2572e-06
1.97555e-05
0.000172085
0.00324764
0.005621
9.31652e-07
8.21353e-07
3.24696e-08
7.13668e-08
0.00699124
0.00343731
0.000252941
0.00402775
0.00686462
0.00662773
0.00106103
0.000106993
0.00190069
0.00865018
0.00732142
0.00805397
0.000453423
0.00336327
0.000194144
1.55674e-06
0.00569287
0.00566006
0.000162356
0.00558404
0.00590657
6.57438e-07
0.00429789
0.00350015
0.00234972
0.000606268
0.000599614
0.00197929
0.00585149
0.00459075
0.00395331
0.00381046
0.000239943
0.00211064
0.0024191
0.000187398
0.00457769
0.000281319
0.003622
0.00363204
0.000118282
0.00234763
0.000809482
0.000543436
0.000287794
0.00399512
0.00343581
0.00553516
0.000453438
0.00191361
0.00315216
0.00356014
0.00426772
0.0037868
0.00597059
0.000137593
0.00966409
0.00546094
7.88615e-05
0.000265628
0.000273022
0.00201242
0.0035891
0.00785535
0.000196797
1.66274e-06
0.00356033
1.42566e-06
0.00669711
0.000129478
0.00257698
0.00297551
0.00254075
0.00673174
0.00467204
0.00334157
0.000557595
8.16876e-05
0.000678619
0.000353957
8.94984e-05
1.82924e-05
0.00023103
0.000193798
0.00347819
0.00575818
0.00510403
0.00541715
0.000701385
9.45954e-06
0.000636231
0.00624415
0.00115079
0.00244291
0.000277358
2.82138e-06
1.67112e-05
0.00535871
0.00723025
0.00299862
0.00103572
0.00344974
0.00013973
0.00340381
0.0048232
0.0028783
0.00359487
0.00181554
0.00200174
0.00030362
0.00184605
0.000299142
0.00336233
0.000223001
0.00337946
5.77804e-06
5.99719e-06
2.66586e-07
4.24339e-07
0.000358583
0.000259468
0.00497229
8.42007e-05
0.00252838
0.00602315
0.00020483
0.00370791
0.000377329
0.000149176
0.00573572
0.000220569
0.00414435
0.000141069
0.00731015
0.00439298
0.00332505
0.000451946
0.00254762
0.0073428
0.000858794
0.0035936
0.000473791
0.000199016
0.00331773
3.37952e-05
2.34011e-05
0.000142218
0.000120171
4.30711e-05
0.00568669
0.000673013
0.00730015
0.00666495
7.43424e-06
0.000257626
0.000509728
0.00304227
3.96328e-07
0.00767756
0.000177411
0.00176161
0.00344543
0.000611535
0.00973334
8.661e-05
0.00599967
0.000686305
0.00760614
4.26067e-06
4.03329e-06
2.97204e-07
2.0134e-07
2.39449e-05
1.80087e-05
0.000102722
0.000141931
0.00232302
0.000213216
0.00213565
0.00555406
0.00026241
0.00365449
0.000627983
0.000630672
1.35245e-08
0.00229779
0.00302613
0.00497667
8.18927e-05
8.35459e-06
0.00637389
0.000162825
0.000229617
0.000111798
0.00336063
0.000355633
0.000107927
0.00392518
0.000830786
6.21633e-05
0.00985692
0.00129014
1.34037e-06
0.00217244
2.23744e-05
0.00197709
0.000138409
0.00315879
0.00791999
0.000349038
2.44664e-06
0.00107473
2.1738e-05
1.84085e-07
9.34251e-08
1.63253e-06
8.85471e-07
2.03564e-06
0.000227667
0.000173852
0.00776143
0.00670092
0.00725633
0.00435738
0.00638266
0.00326229
0.000973414
0.00305194
0.00101778
0.000362835
0.00234504
0.00339835
0.000597778
0.00237466
2.49472e-05
2.17958e-06
1.65621e-06
1.44719e-06
1.8466e-05
2.08897e-06
0.000579393
0.0040183