/*--------------------------------*- C++ -*----------------------------------*\
| =========                 |                                                 |
| \\      /  F ield         | OpenFOAM Extend Project: Open source CFD        |
|  \\    /   O peration     | Version:  1.6-ext                               |
|   \\  /    A nd           | Web:      www.extend-project.de                 |
|    \\/     M anipulation  |                                                 |
\*---------------------------------------------------------------------------*/
FoamFile
{
    version     2.0;
    format      ascii;
    class       volScalarField;
    location    "2000";
    object      kappaEff;
}
// * * * * * * * * * * * * * * * * * * * * * * * * * * * * * * * * * * * * * //

dimensions      [1 1 -3 -1 0 0 0];

internalField   nonuniform List<scalar> 
26307
(
1.25392
0.238938
0.246868
0.0495785
0.249473
0.577653
0.042013
1.45359
0.0878358
2.06218
0.114956
0.171241
0.256829
0.146371
0.0429267
0.151949
0.0961308
0.0724538
0.261064
1.5011
2.71159
0.43503
0.154016
0.185093
0.0955769
1.33061
1.73831
0.030447
0.508077
2.69934
0.0551608
1.80052
0.133129
0.598422
0.754492
0.0671398
1.39413
0.294661
0.339824
1.52618
0.0664576
0.0437507
2.26853
0.374903
0.122601
0.034359
0.580524
1.42168
1.87621
0.24375
0.0457293
0.251625
1.07691
0.390743
0.417984
0.161819
0.198049
0.16598
0.943155
0.371617
0.0466283
0.0672049
0.0366075
0.216149
1.51148
0.0302467
0.335562
0.276644
0.0947484
0.906115
1.77472
0.0438772
1.64496
0.0413301
0.0351964
1.1368
0.252229
0.10997
2.00247
0.217915
0.0491509
1.29976
0.0307911
1.5063
0.795369
1.19188
0.244879
0.164419
1.27656
0.0761377
1.68225
0.336451
0.204037
0.176545
0.111714
1.71686
0.0359172
0.0331182
1.97999
0.643575
0.0316426
0.123016
1.20585
1.23881
0.0874782
0.043189
0.038628
0.725637
1.21691
0.176678
1.71551
0.0313089
0.288096
1.95102
0.127424
0.0307509
0.0317255
0.10808
1.69485
1.22768
1.50128
0.212808
0.0357399
0.033445
0.0833675
0.0440479
1.81637
0.0486461
0.0328957
0.0308094
0.0308363
0.0304011
1.54342
0.0720492
0.359998
1.31247
0.91681
1.44609
1.60826
0.341979
1.39998
0.336076
0.0910384
0.031104
0.638777
1.69098
0.910338
0.320111
0.125528
0.350048
1.72673
0.0575244
0.386184
1.41793
1.70594
1.85331
0.234626
0.0373113
0.160139
0.0672639
0.0959366
1.72823
0.178022
1.39821
1.61635
1.30585
0.905367
1.38592
0.058972
1.47534
2.13413
1.86884
0.522775
1.23205
0.0405517
0.238432
0.0303995
1.59394
2.05312
1.97717
0.0749352
0.0584697
1.90196
0.0442502
0.430125
0.173722
0.13776
0.0652201
0.0416182
0.402561
0.351018
0.0347706
0.120393
1.71293
0.399716
0.158355
0.0301609
1.62081
0.0685296
1.24701
0.0310199
1.56224
0.060924
0.0391947
0.210855
0.0993081
0.207714
0.0305354
2.174
0.414005
0.173433
1.63401
0.112546
0.033588
0.301871
1.79795
0.271316
2.3239
1.76869
0.0867163
1.72926
0.223559
0.0316152
2.21993
0.145208
1.30876
0.19086
2.36744
1.81497
0.219788
2.69232
0.170497
0.128804
0.145891
0.749636
0.473832
1.01421
0.194951
0.265255
0.162319
0.0366294
0.0435324
0.424544
2.6982
1.65699
0.123808
1.15235
0.930822
1.68541
2.16924
0.268807
1.74362
0.0302378
0.0303104
0.032825
0.0317648
0.0312261
0.0405148
0.0311906
2.39463
1.00541
0.030614
0.142212
0.0664001
1.85984
0.0913192
0.103169
0.83816
0.736519
0.345792
0.847519
1.83477
1.14971
0.0353134
2.11367
0.0321582
0.617597
0.192287
0.0695452
0.119492
0.482007
0.609784
1.35187
0.0699753
0.0335151
2.0467
0.124876
0.0302206
0.0329484
0.967466
0.0949365
0.0314283
1.33613
1.12729
1.20219
2.39975
0.338593
0.361463
0.99731
0.0301252
2.28468
0.101589
1.3963
1.07925
0.155998
0.0548952
0.0585884
0.1338
0.140656
0.0302987
1.21519
0.0301209
0.162663
0.448559
0.0759467
0.0536514
0.0310577
1.0514
1.64918
0.0657384
0.137397
2.25592
0.0396576
0.521718
0.0672516
0.031195
0.292762
1.56883
0.433794
1.7475
1.49064
0.0745603
0.0301884
1.07025
1.1572
0.0321245
1.38292
0.547435
1.82843
1.48261
0.0574433
0.0946195
1.54518
1.88528
0.0583824
0.773978
1.36207
1.6315
1.81892
2.24243
0.882544
0.188479
0.134113
0.44411
1.98271
1.27277
0.436528
0.0335414
0.184965
1.06777
0.851422
0.0994334
1.07755
0.0344005
0.0621241
0.0728933
0.245753
1.0851
0.222557
1.3809
1.37679
1.33589
0.447467
1.31108
2.53506
1.7599
0.932636
1.60798
1.17463
0.199427
1.84762
0.422297
0.0872211
0.0647329
0.0359811
1.49508
0.987191
1.68636
1.77443
1.71644
1.36348
0.949573
0.191864
0.277
1.76978
1.31647
0.122088
0.336498
0.335826
0.060758
0.219256
0.134183
0.345821
0.120279
0.0975302
2.47926
1.38459
0.0301174
1.14207
0.0376281
0.131468
0.107401
1.68163
0.798533
0.0815343
0.48028
0.0640339
0.0315056
0.0345633
1.18885
0.122129
0.0344939
0.0329899
0.0333046
1.29564
1.21119
0.038358
0.0990121
1.50759
0.153184
1.03316
0.254512
1.42524
1.07065
0.032986
1.61155
0.0587458
0.901756
0.820566
0.915969
0.0740446
1.12153
0.0440559
0.501929
1.73074
0.0342719
0.600092
1.67536
0.127419
0.657742
0.944755
0.0328139
1.31672
0.30679
1.37692
1.42777
1.19913
0.178619
0.242853
0.0302161
0.26456
0.0301778
0.0659109
0.822811
0.995511
1.76445
0.0441875
0.0339254
0.0448641
0.163531
0.571839
0.404766
0.926705
1.25587
1.42601
1.11492
0.0886865
0.579816
0.0345531
0.207695
1.43673
0.249528
0.0419527
0.112106
0.239354
0.83693
1.01832
0.0347479
1.00228
0.124661
1.77191
1.99146
1.05222
0.0347833
0.274793
1.47945
1.32905
1.25635
0.0513369
0.0303669
1.53513
1.14214
1.10401
0.0300867
1.86049
1.30558
1.70594
0.196203
1.15294
0.892207
0.0301088
0.0301124
0.0304819
0.0305287
1.10527
0.24482
0.0315325
2.14153
1.75345
0.363725
0.0425865
0.411452
2.26814
0.07378
0.230316
0.201791
0.031083
1.18032
1.7589
0.110729
1.17983
1.05214
1.733
0.167105
0.0312269
1.27465
0.0336073
0.22149
1.78873
0.194875
1.11413
1.08634
0.132895
1.36618
0.433995
1.75897
0.044117
1.1379
0.0374519
1.70165
0.033487
1.47497
0.0361649
0.230617
0.0390906
1.54185
1.33728
0.594796
0.74115
0.0313204
0.620582
0.722906
1.45171
0.0512604
0.0682102
1.76606
0.0368077
0.199236
0.16205
1.15598
0.0305628
0.0608776
0.439028
0.398408
0.0310022
0.0341643
0.101142
0.655215
0.86118
0.054483
1.13975
0.878217
0.100959
0.0318932
0.0322793
1.21043
1.08207
1.97758
0.0360182
0.0400042
0.0422051
1.41215
0.032895
0.0346648
0.32575
1.55766
1.77003
1.20172
0.0305847
0.222387
1.71432
0.797964
1.20745
0.0895254
1.25619
0.0353745
0.0334357
0.0300944
0.0301024
0.0301079
0.0300867
0.0300852
0.366379
0.196339
1.7487
1.15412
1.61075
1.26526
0.173434
0.101027
0.940469
0.64084
0.0355452
1.86349
1.12859
1.43005
1.25057
1.26382
0.0441091
0.127339
0.686536
1.45724
0.102795
1.05699
0.839583
0.0318634
1.26402
1.14851
1.04649
0.0926831
2.10593
0.168906
1.16152
0.105431
1.3567
0.980526
1.24813
1.87248
1.1613
0.0420179
0.781469
1.13
0.056732
0.0535581
1.26412
1.13186
1.60878
0.0311295
0.167066
0.0304206
1.38386
0.0336804
1.49706
0.0392893
1.10257
1.41309
0.111373
0.26166
0.159437
1.64894
0.250752
0.103408
0.0346882
0.0315409
0.455515
0.0346187
0.390513
1.68388
0.116187
0.0876049
1.81899
1.75274
0.0301637
0.036983
0.25
0.259064
0.031198
0.150082
0.719149
1.27305
0.205124
0.151773
1.33766
0.116667
0.248931
0.181178
0.0339086
0.0302015
0.964337
0.197782
1.5182
0.0306977
1.1605
0.0369885
0.0321783
0.426352
1.4473
1.35548
1.29516
0.335534
1.78028
1.91594
1.39686
0.295603
0.201035
1.44328
0.47327
0.765835
1.39129
0.129898
1.42384
0.331502
1.7923
1.21759
1.79018
0.348852
0.262719
1.24833
1.20906
0.0618255
0.133212
0.107243
1.29259
0.750783
1.35372
0.10793
2.4304
0.153754
2.00365
0.383673
1.41036
0.0612428
1.33981
0.186374
1.45424
1.54296
1.13601
0.492871
0.494533
0.233462
0.0301033
0.137285
0.146679
1.22252
1.24143
0.452832
0.483281
0.85521
1.1424
0.0408689
1.34365
0.654422
0.0300851
0.0347257
0.0378064
0.0777777
1.16395
0.214803
1.92404
1.01417
1.37971
1.17506
0.470576
0.568873
0.18657
0.747867
0.151579
0.171768
0.745293
1.57149
0.235506
0.0727532
0.03065
0.109333
0.108092
0.22587
0.035318
0.127123
1.91595
1.84478
0.128399
0.0313369
1.19626
0.185686
1.41462
0.207003
0.240526
1.13771
0.824415
0.0841125
1.22451
0.29623
1.18272
1.46256
1.34861
0.0990449
1.12727
0.079589
0.248431
0.112299
0.0374802
0.091738
1.3971
0.284596
1.8107
1.07779
1.77739
1.65801
2.07744
0.209877
1.36792
2.46853
0.452631
0.0639342
0.0583772
1.20327
0.114167
0.0301996
0.0315742
0.460849
0.455533
1.73676
0.654721
2.01465
1.99663
0.216198
0.0301043
2.21121
1.22876
0.0411363
0.0302417
0.111639
1.1262
0.0306202
1.36583
1.72819
1.20996
0.0978481
1.05371
1.33517
0.0395995
1.09679
1.70238
1.39373
0.308841
1.37062
1.79259
0.26579
0.237406
0.0353207
0.0342398
0.198552
0.739351
0.0304457
0.0366861
1.15577
1.64151
0.0303416
0.916848
0.0301453
0.0300869
0.0300907
0.0301458
0.0307468
0.0334001
0.0321468
0.0304618
0.840902
1.71238
1.44795
0.030143
0.585782
0.0453822
0.292285
1.6963
1.5297
1.26104
0.500897
0.0382665
0.0415155
0.272355
0.0305981
1.61177
0.0773248
0.0753325
1.98406
1.28648
0.165446
1.47553
0.0362043
1.65886
1.7736
0.0311263
1.75021
1.55705
0.131269
0.177816
0.351183
0.163203
0.854342
0.116922
0.0300908
0.160234
0.326718
0.030085
0.0502452
0.0387977
0.102921
1.74544
1.15265
0.034176
1.67844
0.257139
0.052212
1.35278
2.27636
1.90508
0.0302206
1.15534
0.0398046
0.0974953
0.447414
0.0899042
1.32038
0.802942
1.30948
0.0318089
0.351901
0.0863422
1.95375
0.246871
0.888382
0.567117
0.0686713
0.245174
0.147143
1.87489
0.0311312
0.218385
1.4275
1.05468
0.0305294
1.10589
1.54437
0.664352
0.338594
0.033426
1.87516
0.609172
1.25391
0.542549
0.267321
1.70696
1.43762
1.80263
0.257931
0.0974169
0.74607
0.0960636
0.043768
0.0331117
0.0336445
1.57954
0.167871
0.525974
0.0451867
0.0319315
0.0327202
0.0303315
0.0302451
0.033099
1.514
1.83425
1.26334
0.162201
0.113646
0.0329422
0.0302272
1.62193
0.0919163
0.575856
0.261169
0.477244
2.08625
0.0529924
1.57725
1.6759
0.158066
1.65588
0.860928
1.30245
1.58885
0.0906609
0.35038
1.24359
0.0618288
0.196597
1.44281
0.117512
0.137363
0.117919
0.726483
0.913549
0.602957
0.0314838
0.140834
0.167776
0.0301371
0.103492
0.0390144
0.145923
0.185363
0.157484
1.5846
1.97438
0.070062
0.128799
0.71525
1.49125
0.62701
2.16408
0.0686534
0.898371
1.18394
0.109323
0.0669386
1.13325
0.224688
0.877844
0.066598
1.26354
1.38559
0.225878
0.0860212
0.110593
2.12076
0.106033
1.46981
1.2065
0.0325329
0.0493261
0.410402
0.0678903
1.79327
1.56767
2.01503
1.07617
1.75551
1.39604
1.24555
0.0301833
0.940229
0.0398999
2.14724
0.0388811
1.07292
0.0788224
1.50114
1.61139
0.0463015
1.1754
1.17868
1.74243
2.04376
0.203597
0.0647489
0.712718
0.030099
0.207355
0.0418254
1.91544
0.0305692
0.175579
0.067778
1.31779
1.11499
0.349183
0.0346272
0.104767
0.0312509
0.0635695
1.4837
1.7551
0.0612069
0.469375
0.280569
1.6596
0.116419
0.0361394
0.899723
1.14754
1.73636
0.73986
0.0871849
0.853697
0.339682
0.756432
0.127034
0.32388
0.0606965
1.16716
0.443903
0.97597
0.067283
1.16192
1.51223
2.27122
1.54712
0.11698
0.0376814
0.273328
0.282317
2.30622
0.345258
1.72366
0.386433
0.903463
1.13065
0.34186
0.107132
2.3301
0.038358
0.0320389
2.3826
0.0526223
0.952797
0.471498
0.659634
0.258332
0.170627
0.168735
1.38373
0.030658
1.95975
1.15409
0.197853
1.02454
0.0730167
0.830503
1.22551
0.0307349
0.972823
1.97776
0.0338996
1.42149
1.13207
0.112816
0.607712
1.78115
0.620999
0.527896
0.0352245
1.11187
1.5043
0.139053
0.037931
1.24609
0.734119
1.15912
1.22924
0.641215
0.90597
0.226689
0.495662
0.429991
0.272663
1.55692
1.3671
0.0702245
0.235256
0.224679
0.257398
0.041157
1.68005
1.05238
1.55226
1.7993
1.76942
0.852188
0.778784
0.976712
0.113016
2.01685
0.344242
1.87682
0.0318411
0.0301343
0.044701
1.13001
1.84658
0.888958
0.0525668
1.1109
0.593235
0.738344
1.142
0.46229
0.394538
0.310446
0.294056
2.25282
1.4993
0.0609906
0.0559937
1.14334
1.40827
2.01285
0.030671
0.0305845
0.035595
0.0307421
0.0309514
0.0391948
0.0448281
0.0669763
0.0595264
0.0309694
0.314442
1.1585
1.48949
0.786103
1.67985
0.199917
0.144882
0.0473444
0.0509337
0.0317543
1.77033
1.33008
0.113783
1.31518
0.402085
0.342945
0.478265
0.0649493
0.0386979
1.5846
1.82125
0.150252
0.824003
0.330613
0.178707
0.331527
0.419725
0.0618078
1.17334
0.302146
0.0853943
1.35436
1.23278
0.0836308
1.81646
1.57873
0.585218
0.0366907
0.853727
1.47493
0.0495946
0.1979
1.43211
0.0618856
2.17914
1.1699
1.50321
0.0344339
0.374723
0.0355946
0.380652
0.0985276
0.0485008
0.0575328
0.0667463
2.37156
0.724333
1.66944
0.101902
0.0304373
0.648425
0.0469266
1.18903
1.80129
0.971038
0.123773
1.25849
1.80945
1.52973
1.65169
0.283743
0.0984085
0.67929
1.59466
0.385802
1.63309
1.25337
1.26422
1.35286
0.0818395
0.830194
0.334586
0.16693
0.442026
0.289577
1.6675
0.0628585
0.0440809
0.0639867
0.33957
0.119864
0.211622
0.0444048
0.130895
0.139262
1.62447
0.901087
0.0301287
0.077267
1.08184
1.93812
0.126903
1.67967
1.65562
0.0305581
0.0301965
0.030159
0.224396
1.2216
1.52048
0.259584
0.476377
0.737256
0.0352644
0.329397
2.1944
1.3708
0.344955
1.65925
0.0341058
0.603823
1.74596
0.0301288
0.0300907
0.738818
1.72591
2.03291
1.60939
0.740108
0.0309672
1.56172
0.116073
1.10413
0.0301778
0.102964
1.73572
0.175231
0.672153
0.842632
0.158172
0.0646533
1.63946
0.296633
0.0491504
0.158723
1.57098
0.10474
1.76843
0.32774
1.74892
1.76889
1.20888
0.0518158
0.472942
1.3
0.0385213
1.35206
1.78209
0.297145
0.0352725
1.11728
0.163771
0.75673
0.116376
0.359973
0.530906
0.442533
0.100414
0.209429
1.59325
0.743303
0.0321743
0.749682
0.288693
0.0970936
0.877587
0.03598
0.121972
0.146537
0.378421
0.346188
0.329603
0.201654
0.122124
0.786277
0.987188
0.0374206
1.67657
1.80268
0.150075
0.102271
0.108224
0.601101
0.640853
0.117382
1.63637
0.0830048
0.471402
1.6239
0.923932
0.939463
0.121858
0.236593
1.44146
0.184253
0.21362
1.60554
0.547194
0.0301131
1.52895
0.0390978
2.05711
0.565199
0.707119
1.73955
1.22101
0.0301915
0.852453
0.187234
0.101986
0.76034
0.782861
0.733794
0.838732
0.928662
1.94172
0.0424324
0.910884
0.0360021
0.100956
0.830271
0.308598
0.123822
1.69778
1.74502
1.52543
0.0317689
0.0627141
0.0624338
1.70686
1.98777
0.189161
0.032987
0.391298
0.0396227
0.0300849
0.189726
1.3137
0.457196
0.478878
1.4952
0.337608
1.76361
0.598263
0.0355739
0.0304793
0.0373393
0.0390497
0.293491
0.570818
0.0921578
0.306632
1.63117
0.693955
1.03246
0.594273
1.54873
0.469807
0.0408653
2.14155
0.166441
1.05553
0.745565
0.926863
0.205093
0.330974
0.159723
0.29012
0.223658
0.0728344
0.523162
0.296987
0.117876
1.62896
0.0337186
2.04897
0.0505283
1.61988
0.0380126
1.02967
0.545334
1.75606
0.103455
1.75081
1.74185
0.0533378
0.422024
0.129546
1.75809
0.249731
0.243332
0.636052
0.0316221
1.56486
0.31945
1.61344
0.176966
1.18068
1.78278
2.54258
0.177596
1.90295
1.48817
1.21377
0.0351223
1.42655
1.43967
0.0301924
0.164749
1.47931
0.0366225
0.0323155
1.49313
1.75112
0.0313602
0.0401703
1.24915
0.879445
0.191754
2.54965
0.12896
0.146575
0.0847148
0.0321622
1.86111
0.565424
1.67166
1.91562
0.0301115
0.204405
0.526753
0.533068
0.072893
1.68195
1.54463
0.0958804
0.460193
0.0343773
0.0312013
0.0913265
0.0310056
0.141999
0.167414
0.229846
0.109239
0.0407969
0.135903
0.819554
1.03654
0.0451141
0.153381
1.18995
0.565301
1.21299
0.467133
0.541778
0.129763
1.29774
1.04223
0.241673
0.0655685
0.359041
0.303148
1.59873
1.70828
1.39871
1.33843
1.04788
0.3525
1.74482
0.0704835
1.43811
1.7054
0.0617979
1.59122
2.39298
0.183343
0.0319111
1.09141
0.287088
1.7859
0.231724
0.796805
1.04335
0.114134
0.827164
0.561707
0.701128
0.124242
0.0312413
0.0305165
0.100549
0.245675
1.79719
1.25295
0.178972
0.182253
0.300551
1.46207
0.512181
0.0304505
0.354913
1.14763
0.628826
0.511146
1.29761
0.26626
0.113192
0.0733713
0.635961
0.67419
0.0832659
0.493362
0.0321184
1.90852
0.466113
0.217619
0.123649
0.0363272
1.56588
0.358554
0.248799
1.09649
1.38756
0.222443
1.54993
0.8852
0.184038
1.66127
0.0964883
0.114628
0.939333
0.0312603
0.565839
1.38432
0.177935
1.17847
1.54755
0.66611
0.834373
0.0695006
0.0327851
2.21204
0.444604
0.277768
0.121423
0.0313989
0.191767
0.916416
0.0422099
1.75025
0.0862496
2.60097
1.74021
0.345215
0.0848614
0.608381
0.758251
0.0301917
0.11421
0.0781571
0.133281
0.0301017
0.169659
1.06589
0.269751
0.165357
1.78342
0.030239
0.0325737
0.0526888
1.35248
0.0719813
0.210119
1.55256
0.0336109
1.58172
0.169082
1.54278
0.261877
0.102839
0.221912
1.04249
0.0512294
0.277671
0.3544
0.255093
0.0750406
0.169459
2.27455
0.105014
0.315078
0.134137
0.211128
1.79688
0.0782067
1.5724
0.298511
0.845282
1.0634
0.0301693
0.149672
0.0437995
0.0823845
0.910255
0.10354
2.00006
0.259991
0.144644
0.0354142
0.0319077
1.89489
0.0312356
0.0870992
0.0405814
0.302589
1.43001
1.54374
0.0304366
0.0304024
0.0301023
0.0301096
0.0300968
0.0301057
0.0300865
0.0300857
1.2755
1.57501
0.975994
1.93378
0.12036
0.10417
0.395923
0.0777168
1.54168
0.0445268
0.0767508
1.0447
0.088576
0.0300982
1.40222
0.0867703
0.0603456
0.0706289
0.122706
1.18363
0.0991176
1.45618
0.225349
0.104005
1.12956
0.0581809
1.39384
1.85373
0.15611
1.54025
0.0319029
0.0384255
1.62807
0.189786
0.127388
1.89663
1.36189
0.151742
0.0389161
1.53807
1.23575
2.02639
0.418426
0.0324474
0.107855
0.224463
0.122317
0.0324932
0.0683465
0.030187
0.382597
0.0319868
1.7633
1.47604
0.781892
0.326702
0.0351449
0.0872528
0.185917
1.51261
0.0330849
0.609685
0.945365
0.124077
0.0456054
0.177041
0.265877
0.0308325
0.200124
1.46183
0.0390753
0.0941062
0.0369291
0.0304727
0.0319023
0.0341973
0.0314847
0.0483824
0.49132
1.44004
0.128833
1.19464
0.0302988
0.0387237
0.032458
0.190125
0.183566
1.81797
0.141378
0.149904
0.159602
0.233578
1.33295
0.0518588
1.65653
0.508868
0.324106
1.89467
0.820768
1.04497
0.0320808
0.0468342
0.0319059
0.0301644
0.0302197
0.0357974
0.0328148
0.0480957
0.420547
1.16633
0.0971467
0.645782
0.818483
0.23925
2.27867
0.151425
0.287049
1.18802
0.0423486
1.71131
1.68132
0.200468
0.0821461
0.0530266
0.0810715
1.3189
1.55887
0.12006
1.14389
1.4019
1.43798
1.40532
0.0304178
0.481421
0.0301716
0.0873698
1.38137
0.03017
1.21775
0.229038
1.71172
0.245454
1.74958
0.364676
0.0553542
1.21126
1.29456
1.67702
0.0880944
0.0813017
0.0708613
0.331892
0.0691295
0.0940536
1.78606
0.0822652
0.309479
1.71264
0.331604
0.69851
0.108757
1.55419
1.26153
1.73054
1.69209
0.0305168
0.237873
0.112333
0.0309203
0.0300859
0.462734
1.17658
0.114415
0.525746
1.19723
0.0304221
1.55704
0.103768
1.90644
0.230376
0.318563
0.948034
0.16375
0.0380763
1.61134
1.75052
0.0716984
0.411355
0.171
0.158382
1.40059
0.0581984
0.0305867
1.90772
1.5447
1.05977
1.985
0.675583
0.123528
0.10011
0.156191
0.428495
2.17797
0.0494386
0.0871842
0.981714
1.00209
0.7914
0.13587
0.0734083
0.0595936
0.133817
0.0369674
0.0405971
0.301296
1.58235
0.113103
1.26701
1.20288
0.0778141
0.436173
1.64079
0.0335182
0.294825
0.421329
0.426164
0.0679241
1.55958
1.20464
0.108943
1.79551
0.478394
0.516372
1.44397
0.779451
0.983214
0.150228
0.0505132
1.42232
1.21546
0.0543743
0.0364852
0.185162
0.130401
2.3655
0.115883
0.106512
0.308134
0.0768973
1.6585
1.47831
0.65346
1.60012
0.0316666
0.0834493
0.0855188
1.49187
0.0313074
0.416828
0.418445
1.06907
0.136086
0.139334
1.24911
1.74463
0.147353
1.31275
0.174626
0.420181
1.48609
0.19429
0.174043
1.1811
0.0796834
0.0602269
1.50845
0.0305774
1.39388
1.88482
0.220421
1.99264
0.276305
1.29766
1.04544
2.45248
0.0525057
0.76795
0.3107
0.276959
1.37811
0.219573
0.846447
0.171835
0.0328679
1.38083
1.95273
0.0713729
1.21838
0.509026
0.434059
0.179635
0.812518
0.742214
0.0302747
1.49868
0.920912
2.03442
0.109139
0.245907
2.09486
1.47266
1.55382
1.14303
1.44026
1.38235
1.13921
0.0307031
0.0306834
1.73444
0.0300962
0.0386394
1.08176
0.0655918
0.225809
0.287605
0.069607
0.101889
0.0723963
0.89574
0.159589
0.123708
0.0856081
0.841818
0.316419
0.0325075
0.146186
1.08412
0.182099
0.104939
1.85148
0.149577
0.430392
0.197717
0.0803504
0.0301533
0.247924
0.0545947
1.21669
0.261405
0.101163
1.3556
1.57639
0.431422
0.062287
0.160738
0.0479646
1.46211
0.164545
0.086217
0.0481432
0.0356899
0.0341863
0.0422293
2.5567
0.217607
2.44266
0.092193
0.233212
0.559077
1.7348
0.140513
1.44236
1.60322
0.669942
0.839069
0.794038
1.43967
0.0698655
0.108169
0.658302
0.922336
0.734577
0.495625
0.197597
0.222514
0.0302176
1.67905
0.771407
0.278024
0.0304916
1.12811
2.66621
1.58235
0.0303932
1.61707
0.42448
1.13618
0.0301963
0.0396835
0.104134
0.12438
0.673922
0.1845
0.0614308
0.0489322
2.06329
0.0301021
1.60452
0.0302688
1.47516
0.27144
1.05197
1.65395
0.123883
0.248395
0.395068
0.033132
0.0961088
0.0766276
0.0389239
0.0381052
0.0538424
0.188912
1.40536
0.152144
0.123475
0.076871
0.0347863
1.72867
0.667604
1.51681
0.254153
0.886965
0.0301123
1.47053
1.31968
1.2152
0.417596
1.45437
0.491528
1.54951
0.709587
0.0379702
0.0546694
1.46554
0.345411
1.43605
1.88739
0.136367
0.0507273
0.199059
0.516897
1.80414
0.625806
0.206021
0.043588
0.0511131
0.193485
0.172453
0.0317003
1.65864
0.201752
1.30123
0.201135
0.133436
1.35788
1.13641
0.146074
0.0973934
0.0496343
0.0702388
0.176034
1.73712
0.861772
0.0320799
1.70443
1.41197
0.148657
0.0303269
0.0301412
1.65352
1.56808
0.984435
0.0763364
1.84817
1.76588
0.0876447
0.129039
0.353135
1.71558
0.39048
0.030672
1.64787
2.07543
0.0589205
0.114131
0.071051
1.12822
1.1476
1.06281
0.188149
0.0990485
1.05622
0.0914108
0.0358081
2.079
0.958988
0.0320361
0.0302802
0.0302759
0.0300987
0.122186
0.0382146
0.206998
0.409076
1.72696
0.102528
1.63554
0.110188
1.21975
0.0307593
0.111631
0.0307815
1.75184
1.12416
1.34615
1.55042
0.116684
1.42906
0.0356467
0.316447
2.16358
0.9784
0.0554581
0.108663
0.0337657
0.545959
0.745259
1.39181
0.757247
1.50112
0.0310806
0.34967
1.18911
1.61411
0.755593
1.96678
0.105268
0.182866
1.91911
0.0311838
1.25943
0.182226
0.0339482
0.0384446
0.0309293
0.0320628
0.0623672
0.790202
1.52091
0.0301379
0.0301335
0.0300866
0.030089
0.657872
0.634967
0.0717213
1.63172
1.12704
0.710014
0.0993484
0.130173
0.262221
1.55197
1.5604
1.34542
0.233035
1.28732
0.046816
0.0306256
1.34938
1.08986
0.123671
1.58722
0.960217
0.0301365
1.88246
1.66588
1.70504
0.197689
0.491771
1.55216
1.83553
0.801916
1.1705
0.761788
0.110585
0.68766
0.859534
0.061894
1.31314
0.221485
0.174681
1.33629
0.0991691
1.25848
0.121199
0.341156
0.125118
1.59502
1.43228
1.56713
0.162205
0.652906
2.23305
1.24351
1.60438
1.90907
1.9104
0.0791762
1.91835
1.15888
0.0801312
0.106024
0.161151
1.64429
1.37152
1.81199
0.160167
0.0305572
1.4257
0.0305774
1.20279
0.0647245
1.13807
0.644637
1.03685
1.19447
1.73266
1.25256
0.496174
0.0715397
0.509421
0.246078
0.0635605
0.0311222
0.0401482
0.0454887
0.413506
1.45574
1.8361
1.43681
0.0802862
0.031985
0.0773299
1.52571
0.380559
0.136907
0.11388
0.030231
0.0313582
2.47891
2.55398
0.680626
0.416397
1.36725
0.0743859
1.38979
0.801406
1.0947
0.650625
0.653656
0.367596
0.203208
0.707678
0.0871566
1.31295
0.194993
0.617502
0.0317348
0.0318442
0.0301668
0.0302094
0.114402
0.116509
1.7088
0.0438946
0.287394
1.2099
0.0726831
1.19367
0.0803226
0.0391514
0.392889
0.0432341
1.31664
0.0858597
1.58659
1.13431
1.75642
0.069233
1.27759
1.65014
0.434072
0.11356
0.179098
0.133339
1.33293
0.0384763
0.0354269
0.0585075
0.0581332
0.0461039
1.64796
0.145479
1.37415
1.17887
0.0334938
0.20665
0.225561
1.94321
0.0301216
1.37439
0.0831708
0.0938396
1.27525
0.0857634
1.78731
0.0700518
1.29502
0.512456
1.41359
0.0307202
0.0307057
0.030134
0.0301212
0.0342641
0.0345202
0.0563234
0.0668089
1.29107
0.0516324
0.791755
1.17112
0.0561638
1.67533
0.277247
0.149527
0.0300878
0.915679
1.74342
1.52078
0.0563364
0.0307051
1.26208
0.0813631
0.103632
0.0857061
1.44562
0.0654398
0.0649594
1.95378
0.344178
0.059905
1.92681
0.47934
0.0303996
0.174005
0.0325969
0.181018
0.0656876
1.70354
1.21677
0.0842461
0.0304363
0.344857
0.031453
0.0301466
0.0301129
0.030526
0.0302797
0.0305963
0.0407668
0.130658
1.3885
1.41182
1.41875
1.42996
1.40256
1.77251
0.546278
1.60173
0.266648
0.12115
1.57797
1.12059
0.239322
1.74113
0.0346615
0.0304801
0.030379
0.0303355
0.0327984
0.0305073
0.30757
1.07844
0.101844
1.55861
0.040351
2.11025
0.690083
0.246586
2.03518
0.0484431
0.828456
0.52798
0.0330867
0.030327
0.0302614
0.0348209
0.0330299
0.0509389
1.57561
1.09791
0.232981
0.0495912
0.0335629
0.247762
1.31453
1.47328
1.59496
0.519767
0.126424
0.521698
0.0382475
1.10718
1.00067
0.302093
0.0864581
1.40624
0.177918
1.35003
1.46617
1.06896
1.23624
1.07465
2.57752
2.62759
1.15405
0.030098
0.443343
0.0560227
0.0312807
0.0304323
0.729901
2.1735
0.280412
1.15903
1.5343
1.2677
1.4119
0.0314463
1.07071
0.527157
0.262759
0.200488
1.48911
0.216728
1.60974
1.17091
1.35513
0.0992668
1.05977
1.22832
0.195105
0.0306337
0.0374811
1.15379
1.6512
1.25832
0.0429799
0.895107
1.60478
0.070523
0.0628794
0.0493742
0.0371972
0.079675
0.041579
0.0862108
0.658276
0.67282
1.07317
0.147391
0.0503484
0.199263
0.241605
1.48347
0.265063
0.0729224
1.03282
0.688511
0.0305931
0.491982
1.19097
0.0783819
0.168212
0.0301645
0.151901
0.177825
1.27455
1.3074
0.0437168
1.59218
2.155
0.0311385
0.0312185
0.0301526
0.0301576
0.0329306
0.115168
0.0572826
1.26172
0.0419945
0.081841
1.99137
1.12571
0.0346322
0.286879
1.27183
1.72761
1.36487
0.249907
1.36597
0.394472
1.59461
0.0420291
1.37449
0.0325727
0.413218
0.0330907
1.2821
0.130387
1.14443
0.0355951
1.03607
1.2708
0.0313043
0.0300878
0.0477816
2.04563
0.0933889
0.24103
0.0336233
2.23399
1.89221
0.786861
1.34161
0.357564
0.806617
0.684417
0.71184
0.900143
1.54482
2.03932
0.182268
1.82083
0.0320999
1.53937
1.6494
1.50037
0.0337603
1.05212
0.324331
1.30267
0.0336733
0.486233
0.592122
0.176059
0.0518948
1.38721
1.03459
1.89132
1.16756
0.0412973
0.295355
0.0421231
0.0454958
1.18969
1.9667
0.705033
0.0556845
1.15809
0.032919
1.25607
0.0302012
2.1532
0.160904
0.546698
0.615379
0.055875
0.0301085
0.0990137
1.11206
1.44235
0.0314056
0.190514
1.71107
0.23091
0.0917006
0.0498794
0.544267
1.12185
0.0412146
0.0384694
0.0549968
1.52107
0.0300925
0.0300945
0.0301958
0.030181
0.353706
0.0741188
0.0301406
0.115657
0.68401
0.336515
0.364405
1.33052
0.0655095
0.433307
0.38184
0.0305739
0.0306768
0.036671
0.406846
1.45174
1.53736
0.697134
1.04413
1.17576
0.0843172
0.570191
0.120335
1.0957
1.88614
1.17466
0.479126
1.85406
0.059452
1.27968
0.10268
0.0300876
0.0361353
0.366251
0.0338023
0.075734
0.0637538
0.738385
1.04525
1.14438
1.84337
2.11343
1.19217
0.922402
0.875759
0.131005
0.0613365
0.360058
0.0640329
0.0343909
0.0356968
1.47165
0.0868526
0.0560926
0.0329124
1.06521
0.195922
0.0532143
0.035918
0.030427
0.0311908
1.07629
1.17447
0.134586
1.7325
1.46502
0.0301288
1.12707
0.050004
0.193009
0.196686
0.183888
0.0680389
0.0604014
1.15305
0.206845
0.842131
0.0808003
0.0308787
0.838844
0.0321314
0.637902
0.129888
0.706129
0.233576
0.430274
2.32818
0.731726
1.51665
0.318371
1.31463
0.0304728
0.0317931
0.304121
1.57132
0.0685394
0.0717904
0.532727
0.326501
0.116798
0.830706
1.0615
0.574438
0.647202
0.143881
0.190036
1.7188
1.56243
0.648013
0.0422856
2.3791
0.964933
0.0301956
0.0301645
0.0314053
0.0303949
0.030294
0.0324386
1.13338
0.0411258
0.0536245
1.1642
0.0399253
0.0442807
0.331412
2.10331
0.32525
0.733285
1.82503
0.0514185
0.164943
1.54772
0.273283
1.14104
0.18751
0.349344
0.0640476
0.115863
0.0847949
1.58805
1.25764
1.72242
1.87545
0.0495807
0.800923
1.0066
0.0966878
1.51776
1.83928
1.38849
0.329057
0.599185
0.0305342
1.24478
0.765301
1.6365
0.702959
0.577057
0.0459383
1.37949
0.256189
1.86577
1.50726
0.103703
0.108066
0.0755433
0.0484579
0.0549967
0.104985
1.27818
0.455636
0.0806586
1.21182
0.635843
0.0821202
1.58785
0.0936622
1.2095
1.13427
0.111296
0.0569522
2.32614
2.02002
0.0308578
0.538824
0.191057
1.57406
1.39758
0.0585729
0.692229
0.807475
2.12852
0.239096
0.0726753
0.162997
0.181689
1.1733
1.7057
0.142952
1.28218
0.106359
0.26087
0.694665
1.31791
0.233803
1.87058
0.385046
0.102182
0.136032
0.0554031
0.201223
0.556601
0.0552444
0.966156
0.0589356
0.400254
0.030848
0.0380998
0.0308883
0.0355902
0.506756
0.780172
0.928809
0.518893
0.522437
1.13705
0.0311948
0.214334
1.23852
1.12016
1.5834
1.44596
0.821784
1.70896
1.69401
1.80861
0.241023
0.0540909
1.09278
0.552067
0.149037
0.137989
1.44607
1.70754
1.4708
1.60752
0.0693024
1.63151
1.42386
0.795594
0.227078
0.200125
0.37131
0.290117
0.167652
0.0747807
0.0582296
0.0937018
0.0313814
0.223678
1.02343
0.121281
0.164592
0.0804219
0.509678
0.0648765
0.179712
1.80923
1.53583
0.179854
0.078436
0.0312257
0.265943
0.121887
0.341382
0.0301158
1.26306
0.0927339
2.63562
2.68054
0.204665
0.0356939
1.23169
1.84176
0.646718
0.805947
1.25802
0.378732
1.61591
0.232166
0.165586
1.68195
0.0301376
0.160173
0.22051
0.0900501
0.50001
0.290694
0.0301937
0.0325633
0.0440132
0.092976
0.91042
0.0463185
0.0306079
0.577683
0.854793
1.37222
0.120186
0.680574
1.52454
1.54794
1.69337
1.57319
0.0302817
0.166151
1.72685
0.0302301
0.199282
1.78984
0.264254
0.0313566
0.0487325
0.0789649
1.64472
0.0503366
0.27336
0.60585
0.19389
0.644286
0.721872
0.811557
1.26133
1.60186
0.268116
0.436838
0.159523
1.449
0.52942
0.0312984
0.0605413
0.115835
1.51221
0.507031
0.141759
0.821527
0.190095
1.77884
1.29218
0.180424
1.3685
0.814954
0.639577
0.0748075
0.0487353
0.102607
1.61642
0.0304289
0.330439
1.2672
0.778988
0.0402442
1.18505
0.0900005
0.144192
0.909174
1.17878
0.102932
0.0305145
0.166652
0.313167
0.030321
0.0412343
0.0642824
0.262372
0.383232
0.345048
0.0410433
1.46232
1.47194
1.11151
1.4227
0.706031
1.25251
0.294077
0.0839141
0.0308347
0.204848
0.227803
1.68046
0.0304131
1.18562
1.34056
0.0936816
0.0403389
0.3151
1.98563
0.195581
0.0392026
0.451125
0.0592245
0.586458
0.479696
1.81001
0.971134
1.7951
0.0354003
0.270026
0.230337
0.0783523
0.125241
1.65507
0.212612
1.09305
1.09854
2.07119
1.32467
1.59572
0.145967
0.0403515
1.49727
0.0647398
1.83845
1.31397
0.562955
0.849541
0.104033
1.93663
0.974597
0.121179
0.168686
1.41978
0.718982
0.107378
0.891141
0.275973
0.246597
1.64506
1.45193
0.0387895
0.157603
1.79744
0.553687
0.364194
0.0305971
0.289736
1.38386
1.55065
0.928922
1.35652
0.0345069
0.220491
0.0313043
0.0418597
1.44421
1.32245
0.0453559
0.0303849
1.17327
0.707426
1.32807
0.0301793
1.45274
1.48337
0.324469
0.57129
1.72028
0.0947419
0.194523
0.980594
0.188578
1.23076
1.99278
0.0533294
0.114147
0.0541067
1.64141
1.93557
0.34544
0.551991
0.0345977
0.0559708
1.27838
0.154902
0.257016
1.66805
0.116004
2.03591
0.0380538
0.229873
0.114419
0.0315823
0.118156
0.554295
1.10805
0.459352
0.114205
0.747116
1.682
0.146034
0.0354991
1.1478
0.101684
0.618693
0.188231
0.88834
1.6176
0.49906
0.696377
0.911517
0.0358403
0.60377