/*--------------------------------*- C++ -*----------------------------------*\
| =========                 |                                                 |
| \\      /  F ield         | OpenFOAM Extend Project: Open source CFD        |
|  \\    /   O peration     | Version:  1.6-ext                               |
|   \\  /    A nd           | Web:      www.extend-project.de                 |
|    \\/     M anipulation  |                                                 |
\*---------------------------------------------------------------------------*/
FoamFile
{
    version     2.0;
    format      ascii;
    class       volScalarField;
    location    "2000";
    object      nut;
}
// * * * * * * * * * * * * * * * * * * * * * * * * * * * * * * * * * * * * * //

dimensions      [0 2 -1 0 0 0 0];

internalField   nonuniform List<scalar> 
26307
(
0.000866882
0.000147938
0.000153555
1.38083e-05
0.0001554
0.000387861
8.44938e-06
0.00100831
4.09072e-05
0.0014394
6.01174e-05
9.99856e-05
0.000160611
8.23694e-05
9.09653e-06
8.63208e-05
4.67828e-05
3.00116e-05
0.00016361
0.00104197
0.0018994
0.000286836
8.77849e-05
0.000109798
4.63904e-05
0.000921208
0.00121
2.56752e-07
0.000338578
0.00189073
1.77624e-05
0.00125406
7.29901e-05
0.000402572
0.000513122
2.62475e-05
0.000966196
0.000187409
0.000219399
0.00105973
2.57643e-05
9.68022e-06
0.00158556
0.000244247
6.55327e-05
3.0278e-06
0.000389894
0.000985712
0.00130767
0.000151346
1.10817e-05
0.000156924
0.000741502
0.000255467
0.000274762
9.33119e-05
0.000118975
9.62596e-05
0.000646758
0.000241919
1.17185e-05
2.62936e-05
4.62047e-06
0.000131796
0.00104933
1.14891e-07
0.00021638
0.000174646
4.58036e-05
0.000620522
0.00123578
9.76982e-06
0.00114387
7.96563e-06
3.62092e-06
0.000783921
0.000157352
5.65854e-05
0.00139711
0.000133047
1.35053e-05
0.000899354
5.00508e-07
0.00104566
0.000542076
0.000822937
0.000152146
9.51534e-05
0.000882917
3.2621e-05
0.00117028
0.00021701
0.000123216
0.000103742
5.78211e-05
0.0011948
4.13146e-06
2.14887e-06
0.00138118
0.000434556
1.10368e-06
6.58265e-05
0.000832836
0.000856181
4.06539e-05
9.28234e-06
6.05162e-06
0.000492683
0.000840672
0.000103837
0.00119384
8.67256e-07
0.000182758
0.00136066
6.89486e-05
4.7205e-07
1.1624e-06
5.52467e-05
0.00117921
0.000848295
0.0010421
0.000129429
4.00588e-06
2.38036e-06
3.77421e-05
9.89074e-06
0.00126528
1.31478e-05
1.99128e-06
5.13461e-07
5.32551e-07
2.24277e-07
0.00107195
2.9725e-05
0.000233689
0.000908355
0.000628097
0.001003
0.00111788
0.000220925
0.000970343
0.000216744
4.31756e-05
7.22163e-07
0.000431157
0.00117647
0.000623513
0.000205436
6.76061e-05
0.000226641
0.00120179
1.94366e-05
0.000252237
0.000983055
0.00118706
0.00129145
0.000144884
5.11899e-06
9.21217e-05
2.63354e-05
4.66452e-05
0.00120285
0.000104789
0.000969092
0.00112361
0.000903668
0.000619992
0.000960382
2.0462e-05
0.00102372
0.00149036
0.00130245
0.000348989
0.000851395
7.41425e-06
0.00014758
2.23127e-07
0.00110773
0.00143298
0.00137918
3.17693e-05
2.01062e-05
0.00132591
1.0034e-05
0.000283362
0.000101743
7.62703e-05
2.48877e-05
8.16973e-06
0.000263837
0.000227328
3.31933e-06
6.39683e-05
0.00119201
0.000261822
9.08583e-05
5.41054e-08
0.00112676
2.7232e-05
0.000861991
6.62558e-07
0.00108528
2.18447e-05
6.45307e-06
0.000128046
4.90334e-05
0.000125821
3.19413e-07
0.00151861
0.000271944
0.000101538
0.00113611
5.84101e-05
2.48166e-06
0.000192515
0.00125224
0.000170872
0.00162479
0.00123151
4.01142e-05
0.00120358
0.000137044
1.08424e-06
0.00155114
8.15458e-05
0.000905731
0.000113882
0.00165563
0.00126429
0.000134373
0.00188575
9.94587e-05
6.99264e-05
8.20293e-05
0.000509683
0.000314321
0.000697088
0.00011678
0.000166579
9.36664e-05
4.63596e-06
9.5256e-06
0.000279409
0.00188992
0.00115239
6.63873e-05
0.000794939
0.000638022
0.00117252
0.00151523
0.000169095
0.00121376
1.08588e-07
1.60017e-07
1.94121e-06
1.1902e-06
8.08605e-07
7.38812e-06
7.83487e-07
0.00167488
0.000690856
3.75063e-07
7.94237e-05
2.57235e-05
0.00129607
4.33746e-05
5.17679e-05
0.000572387
0.000500391
0.000223626
0.000579016
0.00127832
0.000793071
3.70378e-06
0.00147587
1.46883e-06
0.000416155
0.000114894
2.79513e-05
6.333e-05
0.000320111
0.000410621
0.000936262
2.8256e-05
2.43002e-06
0.00142843
6.71436e-05
9.63951e-08
2.02856e-06
0.000663979
4.59368e-05
9.51864e-07
0.000925116
0.000777189
0.000830238
0.00167851
0.000218527
0.000234726
0.000685118
2.88454e-08
0.001597
5.06488e-05
0.000967736
0.000743162
8.91888e-05
1.75742e-05
2.01903e-05
7.3465e-05
7.83212e-05
1.51693e-07
0.000839448
2.57919e-08
9.39096e-05
0.00029642
3.24857e-05
1.66932e-05
6.89362e-07
0.00072343
0.00114686
2.52548e-05
7.60128e-05
0.00157663
6.78094e-06
0.00034824
2.63267e-05
7.86631e-07
0.000186063
0.00108994
0.000285961
0.0012165
0.00103456
3.15037e-05
7.35826e-08
0.000736782
0.000798376
1.44497e-06
0.000958261
0.000366456
0.00127383
0.00102887
1.93791e-05
4.57123e-05
0.00107319
0.0013141
2.00443e-05
0.000526924
0.000943491
0.00113434
0.00126709
0.00156708
0.000603826
0.000112196
7.36865e-05
0.000293268
0.00138311
0.000880237
0.000287897
2.44866e-06
0.000109707
0.000735027
0.00058178
4.91221e-05
0.000741954
3.05718e-06
2.26947e-05
3.03229e-05
0.000152765
0.000747303
0.000136334
0.000956827
0.000953917
0.000924943
0.000295646
0.000907375
0.00177436
0.00122529
0.000639307
0.00111768
0.000810718
0.000119951
0.00128742
0.000277817
4.04718e-05
2.45426e-05
4.17675e-06
0.0010377
0.000677951
0.00117319
0.00123558
0.0011945
0.000944489
0.000651305
0.000114594
0.000174899
0.00123228
0.00091119
6.51692e-05
0.000217043
0.000216567
2.1727e-05
0.000133997
7.37362e-05
0.000223646
6.38876e-05
4.77741e-05
0.00173483
0.000959439
2.33285e-08
0.000787653
5.3434e-06
7.18135e-05
5.4766e-05
0.00116985
0.000544318
3.64436e-05
0.000318889
2.40475e-05
1.00661e-06
3.17251e-06
0.000820789
6.51985e-05
3.12334e-06
2.05798e-06
2.28093e-06
0.000896432
0.00083662
5.86039e-06
4.88237e-05
0.00104656
8.71955e-05
0.000710508
0.00015897
0.000988239
0.000737065
2.05521e-06
0.00112021
2.03017e-05
0.000617434
0.000559924
0.000627501
3.11384e-05
0.00077311
9.89642e-06
0.000334223
0.00120463
2.9661e-06
0.000403756
0.00116541
6.89452e-05
0.000444591
0.000647891
1.93331e-06
0.000911366
0.000195999
0.000954008
0.000990031
0.000828072
0.000105212
0.000150711
9.32284e-08
0.000166087
6.61098e-08
2.5377e-05
0.000561514
0.000683844
0.00122851
9.98964e-06
2.72064e-06
1.04689e-05
9.45249e-05
0.000383743
0.000265399
0.000635106
0.000868268
0.000988777
0.000768426
4.15097e-05
0.000389393
3.16524e-06
0.000125807
0.000996374
0.000155439
8.40662e-06
5.80987e-05
0.000148233
0.000571515
0.000699998
3.30325e-06
0.000688637
6.69919e-05
0.00123379
0.00138931
0.00072401
3.32831e-06
0.000173335
0.00102663
0.000920102
0.000868604
1.50538e-05
2.00044e-07
0.00106607
0.000787709
0.000760697
1.57248e-09
0.00129654
0.000903475
0.00118706
0.000117667
0.000795356
0.00061067
1.7195e-08
1.97578e-08
2.81506e-07
3.14633e-07
0.000761592
0.000152104
1.02568e-06
0.00149561
0.00122072
0.000236328
8.85555e-06
0.000270136
0.00158529
3.0951e-05
0.000141831
0.000121626
7.07241e-07
0.000814748
0.00122458
5.7123e-05
0.000814405
0.000723958
0.00120623
9.70565e-05
8.09228e-07
0.000881569
2.49531e-06
0.000135579
0.00124571
0.000116727
0.000767864
0.000748179
7.2824e-05
0.0009464
0.000286103
0.00122462
9.93966e-06
0.000784702
5.21858e-06
0.00118403
2.4101e-06
0.00102346
4.30698e-06
0.000142044
6.37933e-06
0.00107083
0.000925929
0.000400004
0.000503671
8.75445e-07
0.000418269
0.000490749
0.00100699
1.49996e-05
2.70057e-05
0.00122965
4.76227e-06
0.000119816
9.34754e-05
0.000797508
3.38816e-07
2.18118e-05
0.000289668
0.000260896
6.50049e-07
2.88988e-06
5.03322e-05
0.000442801
0.000588693
1.72822e-05
0.000786016
0.00060076
5.02027e-05
1.28114e-06
1.55464e-06
0.00083608
0.000745158
0.00137948
4.20303e-06
7.02645e-06
8.58539e-06
0.000978965
1.99075e-06
3.24439e-06
0.00020943
0.00108204
0.00123246
0.000829909
3.54329e-07
0.000136214
0.001193
0.000543915
0.000833971
4.2104e-05
0.000868494
3.7471e-06
2.37378e-06
7.00969e-09
1.26628e-08
1.65841e-08
1.52244e-09
4.84195e-10
0.000238209
0.000117764
0.00121735
0.000796194
0.00111964
0.000874913
0.000101539
5.0251e-05
0.000644856
0.000432618
3.86802e-06
0.00129866
0.000778108
0.000991643
0.000864509
0.000873897
9.93406e-06
6.88885e-05
0.000464986
0.0010109
5.15032e-05
0.000727388
0.000573395
1.26002e-06
0.000874038
0.000792219
0.000719952
4.43407e-05
0.00147039
9.83322e-05
0.00080143
5.33703e-05
0.000939686
0.00067323
0.000862783
0.00130503
0.000801281
8.45281e-06
0.000532231
0.000779105
1.88753e-05
1.66271e-05
0.000874105
0.000780426
0.00111824
7.402e-07
9.70288e-05
2.3807e-07
0.000958924
2.54711e-06
0.00103911
6.52009e-06
0.000759678
0.000979632
5.75791e-05
0.000164033
9.16249e-05
0.00114669
0.000156306
5.19376e-05
3.26096e-06
1.03158e-06
0.000301346
3.21172e-06
0.000255303
0.00117144
6.09896e-05
4.07436e-05
0.00126714
0.00122022
5.61275e-08
4.88642e-06
0.000155773
0.000162193
7.88731e-07
8.49985e-05
0.000488088
0.000880436
0.000123986
8.6196e-05
0.000926203
6.1329e-05
0.000155016
0.000107025
2.70875e-06
8.28533e-08
0.000661762
0.000118786
0.00105408
4.34358e-07
0.00080071
4.8903e-06
1.4831e-06
0.000280689
0.00100386
0.000938821
0.000896097
0.00021636
0.00123972
0.00133581
0.000968133
0.000188075
0.00012109
0.00100102
0.000313923
0.000521157
0.000964185
7.07015e-05
0.000987245
0.000213504
0.00124823
0.00084115
0.00124673
0.000225794
0.000164783
0.000862927
0.000835109
2.24832e-05
7.30488e-05
5.4654e-05
0.000894274
0.000510495
0.000937573
5.51407e-05
0.00170022
8.75992e-05
0.00139795
0.000250459
0.000977697
2.20704e-05
0.000927725
0.000110705
0.00100878
0.00107162
0.000783367
0.000327807
0.000328984
0.000144059
1.33434e-08
7.59335e-05
8.25877e-05
0.000844639
0.000858033
0.000299446
0.000321014
0.000584464
0.000787888
7.63897e-06
0.000930444
0.000442239
4.09528e-10
3.28752e-06
5.46966e-06
3.37827e-05
0.000803155
0.000130842
0.00134155
0.00069706
0.000955985
0.000811023
0.000312015
0.000381642
0.000110844
0.000508429
8.60584e-05
0.000100359
0.000506606
0.00109183
0.000145507
3.02237e-05
4.00574e-07
5.61346e-05
5.52554e-05
0.000138681
3.70704e-06
6.87356e-05
0.00133582
0.00128541
6.96396e-05
8.87137e-07
0.000826043
0.000110217
0.000980712
0.000125317
0.000149063
0.000784565
0.000562651
3.82699e-05
0.00084605
0.00018852
0.000816453
0.00101467
0.000933955
4.88469e-05
0.000777176
3.50657e-05
0.000154662
5.82354e-05
5.23865e-06
4.36712e-05
0.000968306
0.000180279
0.00126127
0.000742121
0.00123767
0.00115311
0.00145021
0.000127353
0.000947632
0.00172723
0.000299304
2.39768e-05
2.00406e-05
0.000831009
5.95583e-05
8.15178e-08
1.05518e-06
0.000305125
0.00030136
0.00120889
0.000442451
0.00140573
0.00139297
0.00013183
1.40178e-08
0.00154496
0.000849061
7.82833e-06
1.11371e-07
5.77674e-05
0.000776416
3.79428e-07
0.000946151
0.00120283
0.000835743
4.79992e-05
0.00072507
0.000924436
6.7398e-06
0.000755582
0.00118454
0.000965914
0.000197453
0.000949549
0.00124844
0.000166958
0.000146853
3.70901e-06
2.94334e-06
0.000119331
0.000502397
2.55838e-07
4.67613e-06
0.000797363
0.00114142
1.8208e-07
0.000628124
4.30279e-08
1.72057e-09
4.37372e-09
4.3423e-08
4.69103e-07
2.34857e-06
1.4608e-06
2.6728e-07
0.000574329
0.00119163
0.00100432
4.13998e-08
0.000393619
1.08359e-05
0.000185725
0.00118023
0.00106223
0.000871927
0.000333492
5.79555e-06
8.09696e-06
0.000171608
3.63764e-07
0.00112036
3.34619e-05
3.20507e-05
0.00138406
0.000889949
9.58809e-05
0.00102386
4.33487e-06
0.00115372
0.00123499
7.37908e-07
0.00121842
0.0010816
7.16726e-05
0.000104643
0.000227445
9.42924e-05
0.000583849
6.15096e-05
4.45618e-09
9.21891e-05
0.000210115
3.1802e-10
1.42805e-05
6.17186e-06
5.15927e-05
0.00121504
0.00079515
2.89817e-06
0.00116758
0.00016083
1.56737e-05
0.00093691
0.00159111
0.00132812
9.63896e-08
0.000797057
6.88505e-06
4.77493e-05
0.000295608
4.23723e-05
0.000913959
0.00054744
0.000906235
1.22143e-06
0.000227953
3.98492e-05
0.00136259
0.000153557
0.00060796
0.000380398
2.73323e-05
0.000152355
8.29161e-05
0.00130673
7.41386e-07
0.000133379
0.000989834
0.000725758
3.15117e-07
0.000762032
0.00107262
0.000449273
0.000218528
2.36688e-06
0.00130693
0.000410187
0.000866879
0.000362995
0.000168042
0.00118779
0.000997002
0.00125555
0.000161391
4.76938e-05
0.000507156
4.67352e-05
9.69246e-06
2.14425e-06
2.52168e-06
0.00109753
9.75987e-05
0.000351255
1.06974e-05
1.30827e-06
1.86697e-06
1.74928e-07
1.1378e-07
2.13525e-06
0.0010511
0.00127795
0.000873557
9.35825e-05
5.91895e-05
2.0242e-06
1.01085e-07
0.00112756
4.37975e-05
0.000386588
0.000163685
0.000316738
0.00145645
1.62264e-05
0.00109591
0.00116578
9.06535e-05
0.00115161
0.000588514
0.00090126
0.00110413
4.29083e-05
0.000226876
0.000859564
2.24856e-05
0.000117947
0.00100068
6.19278e-05
7.59892e-05
6.22163e-05
0.000493282
0.000625787
0.000405785
9.9118e-07
7.84478e-05
9.75317e-05
3.72421e-08
5.1997e-05
6.32537e-06
8.20522e-05
0.000109989
9.02416e-05
0.00110112
0.00137721
2.83174e-05
6.99229e-05
0.000485326
0.00103499
0.000422822
0.00151158
2.73196e-05
0.000615037
0.000817312
5.61275e-05
2.6105e-05
0.000781407
0.000137844
0.000600496
2.58637e-05
0.000873698
0.000960152
0.000138687
3.96218e-05
5.70266e-05
0.00148089
5.37965e-05
0.00101981
0.000833294
1.73426e-06
1.36295e-05
0.000269392
2.67791e-05
0.00124892
0.00108913
0.001406
0.000740979
0.00122218
0.00096755
0.000860952
6.99859e-08
0.000644685
6.9526e-06
0.00149965
6.2309e-06
0.000738678
3.45227e-05
0.001042
0.00112009
1.1487e-05
0.000811264
0.000813589
0.00121291
0.00142636
0.000122904
2.45539e-05
0.000483532
1.02738e-08
0.000125567
8.31645e-06
0.00133546
3.43295e-07
0.000103059
2.66995e-05
0.000912122
0.000768476
0.000226028
3.21774e-06
5.29003e-05
8.2622e-07
2.37186e-05
0.00102964
0.00122189
2.2045e-05
0.000311164
0.000177426
0.00115424
6.11534e-05
4.28891e-06
0.000615994
0.000791533
0.00120861
0.000502758
4.04461e-05
0.000583392
0.000219298
0.000514496
6.86722e-05
0.000208105
2.16835e-05
0.000805432
0.000293122
0.000670002
2.63489e-05
0.000801717
0.00104985
0.00158747
0.00107456
6.15511e-05
5.38115e-06
0.000172297
0.000178665
0.00161226
0.000223248
0.00119962
0.000252414
0.000618643
0.000779564
0.000220841
5.45753e-05
0.00162917
5.86037e-06
1.38439e-06
0.00166637
1.59643e-05
0.000653588
0.000312668
0.000445931
0.000161676
9.9551e-05
9.82111e-05
0.000958835
4.06202e-07
0.00136685
0.000796167
0.000118836
0.000704402
3.04103e-05
0.000566963
0.00084676
4.60707e-07
0.000667773
0.0013796
2.70234e-06
0.000985576
0.000780576
5.86017e-05
0.000409153
0.00124034
0.000418564
0.000352616
3.64081e-06
0.000766265
0.00104424
7.71857e-05
5.55792e-06
0.000861334
0.000498691
0.000799737
0.000849403
0.000432884
0.000620419
0.000139262
0.000329784
0.000283267
0.000171826
0.00108151
0.000947056
2.84325e-05
0.00014533
0.000137838
0.000161013
7.843e-06
0.00116873
0.000724125
0.00107821
0.00125319
0.00123203
0.000582323
0.000530329
0.000670528
5.8743e-05
0.00140729
0.000222528
0.0013081
1.24426e-06
3.52357e-08
1.03533e-05
0.000779116
0.00128668
0.000608368
1.5925e-05
0.000765575
0.000398898
0.000501684
0.000787608
0.000306146
0.000258154
0.00019859
0.00018698
0.00157444
0.0010407
2.18918e-05
1.83524e-05
0.000788555
0.000976217
0.00140446
4.15408e-07
3.54164e-07
3.90324e-06
4.65803e-07
6.14017e-07
6.45312e-06
1.04434e-05
2.61317e-05
2.08547e-05
6.26834e-07
0.00020142
0.000799293
0.00103375
0.000535513
0.00116858
0.000120298
8.13149e-05
1.22258e-05
1.47682e-05
1.18279e-06
0.00123268
0.000920831
5.92862e-05
0.000910274
0.0002635
0.000221609
0.000317461
2.46959e-05
6.10116e-06
0.00110112
0.00126874
8.51186e-05
0.000562359
0.000212874
0.000105274
0.000213522
0.000275995
2.24706e-05
0.000809803
0.00019271
3.91778e-05
0.000938032
0.000851911
3.79286e-05
0.00126535
0.00109695
0.00039322
4.67942e-06
0.000583414
0.00102343
1.38196e-05
0.000118869
0.000993099
2.25258e-05
0.00152225
0.000807373
0.00104346
3.08081e-06
0.000244119
3.90302e-06
0.000248319
4.84805e-05
1.30448e-05
1.94426e-05
2.59688e-05
0.00165854
0.00049176
0.00116121
5.0871e-05
2.4989e-07
0.000437991
1.19298e-05
0.000820919
0.0012546
0.000666509
6.63625e-05
0.000870121
0.00126038
0.00106225
0.00114864
0.000179675
4.83962e-05
0.000459854
0.00110824
0.000251967
0.00113546
0.000866495
0.00087418
0.000936968
3.66598e-05
0.000566744
0.000215689
9.69322e-05
0.000291792
0.000183807
0.00115984
2.32149e-05
9.91412e-06
2.4014e-05
0.000219219
6.35937e-05
0.000128589
1.01436e-05
7.14072e-05
7.7334e-05
0.00112936
0.00061696
3.13196e-08
3.34209e-05
0.000744997
0.00135152
6.858e-05
0.00116846
0.00115142
3.35469e-07
7.9348e-08
5.27869e-08
0.000137637
0.000843993
0.0010557
0.000162562
0.000316124
0.000500913
3.66907e-06
0.000212013
0.00153306
0.000949675
0.000223033
0.001154
2.8484e-06
0.000406398
0.00121541
3.13462e-08
4.36329e-09
0.00050202
0.00120121
0.00141867
0.00111868
0.000502933
6.2521e-07
0.00108491
6.09086e-05
0.000760783
6.61062e-08
5.16232e-05
0.00120816
0.000102812
0.000454799
0.000575554
9.07284e-05
2.44862e-05
0.00113997
0.000188805
1.3505e-05
9.1119e-05
0.00109147
5.28809e-05
0.00123133
0.000210839
0.00121751
0.00123166
0.000834983
1.5393e-05
0.000313691
0.000899523
5.97606e-06
0.000936399
0.00124101
0.000189168
3.67481e-06
0.000770098
9.46947e-05
0.000514707
6.11232e-05
0.000233671
0.000354749
0.000292151
4.98168e-05
0.000127036
0.00110724
0.000505196
1.48025e-06
0.000509715
0.000183181
4.74648e-05
0.000600314
4.17601e-06
6.5087e-05
8.24873e-05
0.000246739
0.000223907
0.000212159
0.000121528
6.51948e-05
0.000535637
0.000677948
5.19641e-06
0.00116626
0.00125559
8.49936e-05
5.11321e-05
5.53487e-05
0.00040447
0.000432628
6.18354e-05
0.00113778
3.74852e-05
0.0003126
0.00112895
0.000633142
0.000644143
6.50059e-05
0.000146277
0.000999725
0.000109203
0.000130004
0.00111595
0.000366286
2.02862e-08
0.00106169
6.38444e-06
0.00143581
0.000379039
0.000479566
0.00121087
0.000843575
7.58182e-08
0.000582511
0.000111314
5.09304e-05
0.000517264
0.000533217
0.000498461
0.000572792
0.000636492
0.00135407
8.74643e-06
0.0006239
4.1916e-06
5.02004e-05
0.000566798
0.00019728
6.63976e-05
0.00118129
0.00121475
0.00105921
1.19309e-06
2.31126e-05
2.29141e-05
0.00118772
0.00138669
0.000112679
2.05593e-06
0.00025586
6.75623e-06
2.57246e-10
0.000113079
0.000909229
0.000302537
0.000317896
0.00103779
0.000217829
0.00122791
0.00040246
3.8883e-06
2.79675e-07
5.13885e-06
6.35035e-06
0.00018658
0.00038302
4.39685e-05
0.000195887
0.0011341
0.000470242
0.000710014
0.000399633
0.00107571
0.00031147
7.63643e-06
0.00149562
9.65858e-05
0.000726355
0.000506798
0.000635218
0.000123964
0.00021313
9.18276e-05
0.000184192
0.000137115
3.02812e-05
0.000349263
0.000189056
6.21854e-05
0.00113254
2.57414e-06
0.00143004
1.4481e-05
0.00112611
5.6157e-06
0.000708038
0.000364969
0.00122257
5.19706e-05
0.00121885
0.0012125
1.64711e-05
0.000277623
7.04522e-05
0.001224
0.000155583
0.00015105
0.000429227
1.08914e-06
0.00108713
0.000204967
0.00112154
0.000104041
0.000815004
0.00124149
0.00177969
0.000104488
0.00132661
0.00103281
0.000838443
3.56846e-06
0.000989161
0.000998454
7.64388e-08
9.53874e-05
0.00102653
4.63108e-06
1.58026e-06
0.00103632
0.00121907
9.03629e-07
7.14413e-06
0.000863506
0.00060163
0.000114516
0.00178469
7.00368e-05
8.25141e-05
3.86964e-05
1.47173e-06
0.00129698
0.000379199
0.00116279
0.00133559
1.91361e-08
0.000123477
0.000351807
0.00035628
3.03227e-05
0.00117007
0.0010728
4.66054e-05
0.00030466
3.04076e-06
7.91067e-07
4.33797e-05
6.52426e-07
7.92727e-05
9.72749e-05
0.000141498
5.60676e-05
7.58796e-06
7.49549e-05
0.000559207
0.000712905
1.0646e-05
8.73352e-05
0.000821572
0.000379111
0.00083789
0.000309576
0.00036245
7.06053e-05
0.000897924
0.000716935
0.000149875
2.51345e-05
0.000233011
0.00019342
0.00111113
0.00118872
0.000969445
0.000926748
0.000720937
0.000228378
0.0012146
2.8616e-05
0.000997348
0.00118668
2.24636e-05
0.00110581
0.00167372
0.000108558
1.29381e-06
0.000751774
0.000182044
0.0012437
0.000142828
0.000543094
0.000717732
5.95352e-05
0.000564598
0.000376566
0.000475322
6.66946e-05
8.19378e-07
3.05961e-07
4.99123e-05
0.00015271
0.0012517
0.000866196
0.000105462
0.000107786
0.00019158
0.00101432
0.000341485
2.5926e-07
0.000230087
0.000791598
0.000424109
0.000340752
0.00089783
0.000167291
5.88675e-05
3.06615e-05
0.000429162
0.000456241
3.76702e-05
0.000328155
1.4407e-06
0.00133056
0.000308853
0.000132837
6.62748e-05
4.42192e-06
0.00108786
0.000232666
0.000154922
0.000755369
0.000961549
0.000136254
0.00107656
0.000605707
0.00010905
0.00115542
4.7036e-05
5.98853e-05
0.000644051
8.32832e-07
0.000379493
0.000959254
0.000104728
0.000813442
0.00107487
0.000450518
0.000569705
2.79197e-05
1.91289e-06
0.00154555
0.000293618
0.000175442
6.46983e-05
9.31023e-07
0.000114525
0.000627818
8.58885e-06
0.00121845
3.97836e-05
0.00182104
0.00121134
0.000223217
3.88003e-05
0.000409626
0.000515784
7.59344e-08
5.9589e-05
3.40514e-05
7.30976e-05
1.22026e-08
9.8865e-05
0.000733698
0.000169764
9.58178e-05
0.00124195
1.09425e-07
1.76316e-06
1.60114e-05
0.0009367
2.96769e-05
0.000127524
0.00107842
2.49786e-06
0.00109908
9.84563e-05
0.0010715
0.000164186
5.15347e-05
0.000135878
0.000717121
1.49776e-05
0.000175373
0.000229724
0.000159381
3.18439e-05
9.87234e-05
0.00158983
5.3075e-05
0.00020187
7.37036e-05
0.000128239
0.00125148
3.40865e-05
0.00109247
0.000190136
0.000577432
0.00073193
6.00734e-08
8.4708e-05
9.71481e-06
3.70459e-05
0.000623454
5.20307e-05
0.0013954
0.000162851
8.11463e-05
3.77521e-06
1.29144e-06
0.0013209
8.15361e-07
4.03854e-05
7.43533e-06
0.000193024
0.000991611
0.00107217
2.49395e-07
2.25164e-07
1.26117e-08
1.78025e-08
8.69051e-09
1.50204e-08
1.40272e-09
8.64641e-10
0.000882167
0.00109432
0.000670019
0.00134845
6.39452e-05
5.24772e-05
0.000259135
3.37395e-05
0.00107071
1.023e-05
3.30553e-05
0.000718684
4.14315e-05
9.73285e-09
0.00097193
4.01524e-05
2.14349e-05
2.8719e-05
6.56068e-05
0.000817092
4.88984e-05
0.00101015
0.000138312
5.23607e-05
0.000778797
1.99016e-05
0.00096599
0.00129175
8.92678e-05
0.0010697
1.28801e-06
5.90818e-06
0.00113191
0.000113122
6.89231e-05
0.00132214
0.000943363
8.61737e-05
6.25573e-06
0.00106816
0.000854012
0.00141405
0.000275075
1.67369e-06
5.50873e-05
0.000137685
6.53316e-05
1.70619e-06
2.71023e-05
7.2605e-08
0.000249697
1.34746e-06
0.0012277
0.00102422
0.00053253
0.000210104
3.58446e-06
4.04942e-05
0.000110382
0.00105012
2.12526e-06
0.000410551
0.000648323
6.65783e-05
1.09939e-05
0.000104094
0.00016702
5.29846e-07
0.000120445
0.00101415
6.36845e-06
4.53487e-05
4.84826e-06
2.7495e-07
1.28762e-06
2.91321e-06
9.91803e-07
1.2961e-05
0.000326708
0.000998717
6.99471e-05
0.00082489
1.51821e-07
6.11942e-06
1.68123e-06
0.000113362
0.000108716
0.00126642
7.88331e-05
8.48718e-05
9.17413e-05
0.000144142
0.000922865
1.54234e-05
0.00115207
0.000339138
0.000208265
0.00132075
0.000560067
0.000718874
1.41404e-06
1.18644e-05
1.29015e-06
5.65774e-08
9.57611e-08
4.0466e-06
1.93398e-06
1.27579e-05
0.000276578
0.000804837
4.75024e-05
0.000436119
0.000558449
0.000148159
0.00159275
8.59493e-05
0.000182017
0.000820207
8.68705e-06
0.00119087
0.00116962
0.000120688
3.68769e-05
1.62506e-05
3.61158e-05
0.000912911
0.00108289
6.37325e-05
0.000788944
0.000971703
0.00099726
0.000974123
2.36087e-07
0.000319697
6.17159e-08
4.05771e-05
0.000957158
6.05727e-08
0.000841265
0.000140926
0.00119116
0.000152553
0.00121798
0.000237002
1.78994e-05
0.000836666
0.00089567
0.00116658
4.10904e-05
3.62789e-05
2.88835e-05
0.00021378
2.76569e-05
4.53115e-05
0.00124382
3.69613e-05
0.000197904
0.00119181
0.000213576
0.000473468
5.57263e-05
0.00107957
0.000872277
0.00120449
0.00117725
3.06238e-07
0.000147183
5.82592e-05
5.91993e-07
1.00786e-09
0.00030646
0.0008121
5.9734e-05
0.000351094
0.000826726
2.39148e-07
0.00108159
5.21926e-05
0.00132908
0.000141873
0.000204339
0.000650214
9.46795e-05
5.66089e-06
0.00112006
0.00121864
2.94765e-05
0.000270066
9.98149e-05
9.08774e-05
0.000970772
1.9914e-05
3.55713e-07
0.00132999
0.00107285
0.000729361
0.00138473
0.000457228
6.61888e-05
4.96015e-05
8.93253e-05
0.000282208
0.00152142
1.37092e-05
4.04456e-05
0.000674071
0.000688504
0.000539265
7.49311e-05
3.06877e-05
2.09023e-05
7.3477e-05
4.87535e-06
7.44639e-06
0.000192108
0.00109952
5.8805e-05
0.000876156
0.00083073
3.38085e-05
0.000287646
0.00114092
2.43222e-06
0.000187524
0.000277131
0.000280556
2.68031e-05
0.0010834
0.000831975
5.58579e-05
0.00125051
0.000317552
0.000344454
0.0010015
0.000530801
0.000675133
8.51019e-05
1.44704e-05
0.00098617
0.000839642
1.72053e-05
4.53382e-06
0.000109847
7.10578e-05
0.00165425
6.07741e-05
5.4136e-05
0.000196952
3.31591e-05
0.00115346
0.00102583
0.000441558
0.00111211
1.12065e-06
3.78001e-05
3.9266e-05
0.00103543
8.66225e-07
0.000273943
0.000275089
0.000735947
7.5084e-05
7.73852e-05
0.000863477
0.00121447
8.30654e-05
0.000908552
0.000102384
0.000276319
0.00103134
0.000116313
0.000101971
0.000815303
3.51325e-05
2.13508e-05
0.00104718
3.49154e-07
0.000966025
0.00131377
0.000134822
0.00139015
0.000174406
0.000897868
0.000719208
0.00171586
1.58817e-05
0.000522655
0.000198769
0.00017487
0.000954854
0.000134221
0.000578256
0.000100406
1.97154e-06
0.000956777
0.00136187
2.92459e-05
0.000841712
0.00033925
0.000286148
0.000105931
0.000554224
0.000504425
1.34721e-07
0.00104025
0.000631003
0.00141974
5.59967e-05
0.000152874
0.00146255
0.00102182
0.00107931
0.000788334
0.000998874
0.000957852
0.000785628
4.38165e-07
4.24237e-07
0.00120725
8.28054e-09
6.05974e-06
0.000744937
2.5151e-05
0.000138638
0.00018241
2.79951e-05
5.08615e-05
2.99709e-05
0.000613172
9.17325e-05
6.63166e-05
3.93292e-05
0.000574978
0.00020282
1.71629e-06
8.22383e-05
0.000746607
0.000107677
5.30217e-05
0.00129016
8.46407e-05
0.000283551
0.00011874
3.5605e-05
4.87033e-08
0.000154303
1.73614e-05
0.000840512
0.000163852
5.03472e-05
0.000938904
0.0010953
0.000284281
2.28101e-05
9.25463e-05
1.26651e-05
0.00101435
9.52432e-05
3.97605e-05
1.27916e-05
3.97046e-06
2.90542e-06
8.60254e-06
0.00178969
0.000132829
0.00170891
4.39935e-05
0.000143882
0.000374703
0.00120751
7.82203e-05
0.00100036
0.0011143
0.000453233
0.00057303
0.000541134
0.000998457
2.81782e-05
5.53097e-05
0.000444987
0.000632012
0.000499015
0.000329758
0.000118654
0.000136304
9.43063e-08
0.00116801
0.000525103
0.000175624
2.88335e-07
0.00077777
0.00186726
0.00109952
2.18638e-07
0.00112411
0.000279363
0.000783485
7.91693e-08
6.7993e-06
5.24518e-05
6.67924e-05
0.000456052
0.000109378
2.22036e-05
1.33504e-05
0.00144019
1.24828e-08
0.00111522
1.3053e-07
0.00102359
0.00017096
0.000723837
0.00115024
6.64403e-05
0.000154637
0.00025853
2.15865e-06
4.67672e-05
3.2968e-05
6.26126e-06
5.68133e-06
1.68285e-05
0.000112503
0.000974155
8.64588e-05
6.61515e-05
3.31404e-05
3.33042e-06
0.00120317
0.000451577
0.0010531
0.000158715
0.000606957
1.96775e-08
0.00102031
0.000913466
0.000839455
0.000274487
0.00100887
0.000326856
0.00107626
0.000481314
5.58572e-06
1.74143e-05
0.00101678
0.000223356
0.000995892
0.00131559
7.52837e-05
1.4622e-05
0.00011969
0.000344825
0.00125662
0.000421969
0.000124622
9.56501e-06
1.48953e-05
0.000115742
0.000100844
1.14455e-06
0.00115356
0.000121598
0.000900398
0.000121161
7.3207e-05
0.000940518
0.000783647
8.2159e-05
4.76771e-05
1.38477e-05
2.84426e-05
0.000103381
0.00120915
0.000589112
1.41343e-06
0.00118599
0.000978835
8.39886e-05
1.71695e-07
4.01708e-08
0.00114994
0.00108941
0.000675998
3.27618e-05
0.00128781
0.00122952
4.07718e-05
7.00925e-05
0.000228827
0.00119389
0.00025528
4.16158e-07
0.00114593
0.00144878
2.04255e-05
5.95331e-05
2.90179e-05
0.000777847
0.000791574
0.000731511
0.000111963
4.88495e-05
0.000726844
4.34395e-05
4.05418e-06
0.00145131
0.000657973
1.38241e-06
1.38632e-07
1.3559e-07
1.00422e-08
6.52385e-05
5.75885e-06
0.000125314
0.000268452
0.00120196
5.13143e-05
0.0011372
5.67398e-05
0.000842679
4.7798e-07
5.77622e-05
4.93726e-07
0.00121957
0.000774972
0.000932214
0.0010769
6.13414e-05
0.000990944
3.93992e-06
0.00020284
0.00151123
0.000671724
1.79729e-05
5.56599e-05
2.60748e-06
0.000365411
0.000506582
0.000964555
0.000515074
0.00104198
7.05601e-07
0.000226373
0.000820978
0.00112202
0.000513902
0.00137183
5.32548e-05
0.00010822
0.00133806
7.78636e-07
0.000870783
0.000107767
2.73679e-06
5.92176e-06
5.98389e-07
1.40133e-06
2.28669e-05
0.000538417
0.001056
3.78151e-08
3.47063e-08
1.47816e-09
3.18636e-09
0.000444683
0.000428459
2.94927e-05
0.00113449
0.00077701
0.000481617
4.90619e-05
7.08959e-05
0.00016443
0.001078
0.00108397
0.000931693
0.000143757
0.000890543
1.18515e-05
3.83309e-07
0.000934501
0.000750671
6.62902e-05
0.00110297
0.000658844
3.68467e-08
0.0013121
0.00115869
0.00118642
0.00011872
0.000327028
0.00107814
0.00127886
0.000546714
0.000807795
0.00051829
5.70212e-05
0.000465783
0.000587527
2.25317e-05
0.000908831
0.000135576
0.000102423
0.000925232
4.89349e-05
0.000870116
6.45391e-05
0.000220343
6.73154e-05
0.0011085
0.000993223
0.00108874
9.35852e-05
0.000441165
0.00156044
0.000859513
0.00111512
0.00133095
0.00133189
3.47733e-05
0.00133752
0.000799565
3.54497e-05
5.37902e-05
9.28385e-05
0.0011434
0.000950186
0.00126218
9.21416e-05
3.3485e-07
0.000988561
3.4911e-07
0.000830669
2.45367e-05
0.000784821
0.000435308
0.000713123
0.000824771
0.00120599
0.00086592
0.000330147
2.93641e-05
0.00033953
0.000152995
2.37121e-05
7.35012e-07
7.12845e-06
1.09113e-05
0.00027159
0.00100984
0.00127926
0.000996431
3.55596e-05
1.34617e-06
3.34655e-05
0.0010594
0.000248253
7.5666e-05
5.93551e-05
1.03756e-07
9.02219e-07
0.00173459
0.00178776
0.0004608
0.000273638
0.000947157
3.13802e-05
0.000963126
0.000546353
0.000754106
0.00043955
0.000441696
0.000239071
0.000122629
0.000479962
4.04261e-05
0.000908693
0.00011681
0.000416087
1.16896e-06
1.24644e-06
5.83029e-08
8.849e-08
5.97249e-05
6.12175e-05
0.00118909
9.78217e-06
0.000182261
0.000835702
3.0174e-05
0.000824208
3.55853e-05
6.42235e-06
0.000256987
9.3143e-06
0.000911313
3.95074e-05
0.00110252
0.000782157
0.00122282
2.77302e-05
0.000883647
0.00114754
0.000286158
5.91285e-05
0.000105551
7.31385e-05
0.000922847
5.94418e-06
3.78422e-06
2.0133e-05
1.98678e-05
1.13471e-05
0.001146
8.17375e-05
0.000952048
0.000813726
2.4149e-06
0.000125067
0.000138463
0.00135513
2.63081e-08
0.000952216
3.76028e-05
4.51599e-05
0.000881994
3.94392e-05
0.0012447
2.83102e-05