/*--------------------------------*- C++ -*----------------------------------*\
| =========                 |                                                 |
| \\      /  F ield         | OpenFOAM Extend Project: Open source CFD        |
|  \\    /   O peration     | Version:  1.6-ext                               |
|   \\  /    A nd           | Web:      www.extend-project.de                 |
|    \\/     M anipulation  |                                                 |
\*---------------------------------------------------------------------------*/
FoamFile
{
    version     2.0;
    format      ascii;
    class       volScalarField;
    location    "2000";
    object      omega;
}
// * * * * * * * * * * * * * * * * * * * * * * * * * * * * * * * * * * * * * //

dimensions      [0 0 -1 0 0 0 0];

internalField   nonuniform List<scalar> 
26307
(
3.3202
2.57853
6.03914
2.53514
4.47182
2.91247
6.89947
7.00499
3.72744
4.06248
22.0171
16.1486
2.59997
6.75735
6.43635
5.57314
33.8238
4.30934
3.72426
6.71749
2.48512
8.51495
2.61656
6.124
5.90951
4.76015
4.33947
5.26819
2.91669
2.57808
4.21324
6.17191
1.90653
3.8107
3.50359
37.1336
5.10651
3.43541
3.67228
5.7175
3.9523
3.97749
1.85156
2.31591
8.91892
16.1028
3.76102
6.35258
5.35326
2.08631
7.01764
1.84347
5.61532
3.82813
3.96333
14.1525
6.5284
3.76318
6.47999
4.46249
12.1104
4.23708
4.72248
6.83407
6.98988
12.9157
6.49772
3.93513
25.488
7.19659
6.39844
18.2547
3.30455
3.99553
8.39269
5.04115
9.97034
6.93892
1.95144
9.83387
17.6932
2.8328
13.8133
7.08624
5.76339
6.27203
9.72664
13.7158
4.24825
3.07907
3.06091
2.61985
2.03256
4.88384
13.1686
4.08948
2.46636
6.63308
3.82747
3.52176
6.91894
1.99335
2.88792
3.31678
23.5797
12.2448
11.9322
3.49506
3.9033
15.3217
5.65762
8.92748
4.97118
6.00791
3.92025
14.6981
8.80363
18.169
6.36702
3.33851
4.04663
6.19672
14.2784
8.65917
5.54575
8.98996
6.44514
19.1176
15.0675
5.07124
5.46883
5.69253
6.10643
19.1489
9.66012
3.64078
6.65387
3.66964
4.51107
2.88811
3.35855
9.68135
36.7879
7.72766
6.45753
7.22607
7.93116
3.03706
2.83644
4.37688
5.46597
21.5227
3.08226
4.75403
5.38386
4.29152
2.25667
32.9991
4.68021
2.5066
31.1017
3.29091
35.0372
6.29995
3.2293
6.6392
10.4979
6.2825
5.96308
6.65307
4.16223
4.04665
4.80183
3.19739
11.0664
2.30004
8.18919
3.33668
3.77721
6.09989
48.6943
25.3226
4.67754
15.843
2.55041
16.1233
7.6181
2.68498
3.21361
4.24835
4.52632
30.66
4.04902
3.23368
4.20958
15.4961
20.3508
6.56206
12.3491
4.8207
18.8407
2.86646
16.5224
6.51777
4.1846
42.3972
3.00168
14.567
4.05088
2.18128
19.0006
4.65233
24.3606
6.70138
1.77972
5.89546
12.184
3.82375
4.83325
2.38418
3.61875
2.06555
10.0426
4.12209
1.90498
3.05335
6.50587
3.51429
5.65424
4.22603
2.85303
10.4972
7.25119
7.84907
5.61939
2.61251
5.51774
2.62351
3.38482
24.9739
11.5184
8.98203
1.61848
2.36198
3.97045
21.8019
6.1496
6.54536
4.02947
2.40512
9.81092
3.43781
6.58386
6.72255
6.87532
5.62242
6.17396
6.71037
39.2158
3.27079
3.04246
20.8647
3.03153
7.36301
3.9463
4.00807
31.9122
6.66277
6.29544
17.2454
6.5901
5.78718
6.07764
14.2152
3.65733
12.1363
3.06613
1.9514
6.62035
5.99496
8.96861
8.38931
7.44587
3.45297
16.1725
4.35465
21.2774
19.256
22.0331
6.76865
8.17234
7.6986
3.50993
7.77302
7.59906
3.56122
2.72919
2.6092
7.69686
18.2106
3.763
23.8866
7.25953
8.69383
1.656
1.59319
5.49056
8.12373
22.7288
11.3746
4.49822
17.7812
22.1963
1.88021
7.01571
6.68361
5.19892
3.47441
4.25199
9.66137
5.99082
4.2047
25.9032
11.3505
16.3032
10.0356
3.64422
6.87384
5.49482
4.14854
4.32673
2.87943
9.89993
7.58012
5.23542
11.7594
3.20741
7.56036
4.37078
4.80074
7.84588
3.95615
3.13247
3.36087
5.70031
7.67275
5.22165
5.18926
4.63624
3.70005
7.55685
5.44499
5.92515
2.96965
4.30358
7.41925
1.9254
5.26902
5.4062
3.627
3.95004
25.9051
6.08075
16.6434
5.49734
6.63182
11.3211
5.53456
2.19766
5.07373
5.56124
8.02919
4.974
6.95339
3.85829
3.49911
2.97067
5.34604
4.29507
2.05699
6.10428
8.37274
2.22046
5.96556
8.16989
6.21457
5.89427
4.63609
3.93036
2.79791
4.24298
7.47749
6.96386
6.40395
6.19187
4.7108
2.13684
3.83403
3.93282
5.34632
6.86259
2.99987
1.51498
21.3155
19.2449
3.13105
3.16855
9.86297
7.4537
23.7344
1.65717
9.9173
2.96546
7.41907
7.14505
2.46083
4.73168
5.60864
8.70317
6.92971
2.29269
7.23811
11.825
27.2428
5.43831
4.57555
26.9184
4.0748
3.24202
2.63724
4.39691
10.5674
6.12952
5.85939
6.72588
5.68769
9.10937
5.73493
7.63473
7.29166
7.547
5.29286
6.8302
3.48168
3.96809
11.0932
3.28773
3.00295
9.01638
6.79874
6.89799
4.0618
6.27128
5.27501
3.18798
2.77654
4.58346
16.6933
5.46222
6.21854
9.67122
17.4129
11.3957
3.91919
3.60843
4.40346
17.5123
27.8232
4.37112
5.97375
6.50899
2.55032
7.8005
7.73222
3.60634
3.91044
60.807
3.84541
18.092
3.86929
7.24876
2.20096
6.16764
13.5461
5.00404
3.69622
7.3927
3.76124
6.64338
34.8221
3.28953
3.25488
10.5246
12.9563
1.89273
6.67044
7.49127
3.31934
3.8992
17.2216
2.99563
3.77317
3.42101
19.5048
5.69083
5.73189
2.87734
15.1451
3.67699
6.01697
5.45206
6.17251
6.70787
7.14101
5.5605
2.60038
11.7682
5.39892
5.42089
3.70947
9.48723
3.45217
3.71606
7.04427
2.72561
2.13476
5.945
7.95634
5.50393
3.82332
3.14994
7.92821
5.99674
19.5028
4.36879
7.19592
29.8348
3.83326
3.33547
2.35406
3.24781
7.30494
28.2613
7.55743
4.46551
6.12291
8.05074
3.0151
25.2814
5.27005
5.16776
5.594
15.1297
3.92022
18.7355
2.5998
2.56462
4.07017
3.72669
7.02861
3.97146
3.67391
6.67834
20.1951
23.1152
6.19167
5.01231
5.27707
19.9449
3.91453
16.032
7.43051
3.29604
2.99447
13.0708
16.7089
2.05961
8.92903
7.89406
4.75203
3.17949
6.35538
2.10767
18.0338
17.9617
7.3225
5.88059
4.73726
13.7293
16.4355
34.0121
6.75883
19.6768
19.7968
5.8846
4.28652
5.97346
5.05728
25.7159
2.40352
3.0647
4.2502
7.80642
2.23525
3.30209
16.5397
5.24185
32.2987
24.3923
23.6606
20.0569
23.7662
18.1259
31.1465
6.29756
4.43136
6.75447
3.88199
20.5489
3.50182
6.82484
17.422
8.59142
4.52839
3.23534
3.70122
6.41529
3.68318
4.85767
2.30459
6.85956
7.05225
3.34704
2.99187
6.3814
17.2373
3.93892
3.31079
3.2942
4.04572
3.58758
18.2273
5.19826
3.49481
3.04704
8.06037
5.86991
3.21626
2.61732
30.6656
3.1561
5.64793
15.9023
5.22592
2.82657
3.2802
3.14518
9.90975
32.8853
4.3382
3.3636
5.16041
2.71123
7.31209
2.83264
5.32722
25.691
3.07951
2.62898
3.42104
2.68265
2.05443
9.44877
6.69329
3.91608
16.9786
4.217
5.27341
14.0887
27.3258
6.41804
3.27651
16.4541
16.2096
5.84251
1.86227
12.2973
17.1796
7.80301
7.55381
34.6042
2.14349
7.24413
6.9
11.3326
5.89921
5.26065
13.7243
3.2493
4.13653
6.93196
16.5306
4.11407
34.76
3.60927
3.02341
5.98653
6.59695
7.85316
1.7972
4.16105
4.30386
4.69594
1.61045
11.3238
4.77119
6.25001
7.71497
5.20235
3.70684
5.64036
4.87815
5.41871
2.83682
5.1458
3.68528
6.66691
5.67396
2.74238
4.03091
29.4924
8.72397
2.75175
7.50147
3.45899
28.6991
3.29754
25.5829
2.1694
1.53464
6.74308
2.8642
5.96875
28.4504
3.55505
2.70889
3.84252
2.54071
2.74431
5.50988
12.6691
33.4622
13.5665
5.04393
5.3393
2.17125
2.21114
3.53806
3.52018
5.11297
3.64877
11.5484
9.29666
15.6615
15.863
18.875
5.4148
35.5785
4.0515
5.81404
4.51081
4.79263
1.7584
2.58133
5.11248
3.56427
3.40561
20.9241
3.60432
5.31094
2.482
5.50893
17.1248
25.6253
4.09114
2.11314
6.6708
2.99835
6.04506
2.11966
5.09531
20.4401
3.47123
2.12906
4.66083
2.77825
13.1572
3.34672
3.40764
14.3858
3.36345
13.5529
2.91985
5.98494
6.26198
3.51224
2.88832
3.34711
11.4724
34.3811
16.2532
8.16333
7.08587
12.0656
5.20026
5.34191
3.68973
2.81037
3.12865
4.40682
4.90548
3.32205
2.91576
6.67609
6.18076
3.34568
5.7203
7.80056
10.1412
3.67524
3.75788
1.87819
3.00947
5.64397
4.61075
14.4248
9.85842
2.94738
4.36864
6.82454
8.53231
23.782
6.05699
13.0147
3.23397
5.38777
5.74338
8.56544
5.0287
4.62011
17.2938
2.82407
3.60223
3.36425
4.63203
4.81219
2.70241
3.37613
4.03511
16.8564
17.5008
13.6047
3.70893
12.0992
4.56913
4.88032
6.46535
6.16902
8.17762
27.7445
25.4483
25.9338
26.9087
24.6079
20.2275
21.9484
21.4993
3.49003
3.6688
6.95161
3.34041
3.44294
5.77646
4.30954
4.13221
4.53732
6.509
3.63939
14.762
7.68351
4.48996
8.9163
6.77163
5.52036
5.91532
5.04151
2.82085
8.13674
5.26973
32.1784
5.56403
2.97918
20.016
2.69655
3.22341
7.58117
1.78161
17.8494
38.0699
7.35537
4.45017
11.0906
22.7001
1.81171
21.2252
3.45448
17.6598
9.994
5.76548
3.20515
9.70709
3.24581
6.26665
11.171
7.1748
1.86782
4.18975
32.9662
2.13158
15.42
3.64977
1.77428
35.7473
5.0778
7.98387
6.37688
6.50217
2.89045
2.58286
5.02692
2.74324
5.46667
4.36034
12.7386
3.01531
2.71779
6.11085
7.38443
6.19022
4.88475
6.22459
9.34428
8.14738
4.05893
7.85166
9.6417
10.8798
5.88685
4.01514
6.3926
4.51142
4.00965
5.24516
3.2896
5.22083
4.15299
20.1476
3.8805
25.9067
5.5421
19.1952
5.61915
4.39236
30.9141
3.06451
5.90535
5.3139
4.84104
5.53077
5.24474
5.72421
6.87871
3.01812
5.58021
22.2528
6.96068
3.52446
14.1556
2.9906
11.9771
3.38386
20.6409
3.65519
4.31424
14.4118
2.78447
5.66348
15.6631
4.82655
8.29112
2.63612
3.2023
28.2137
2.51115
4.05378
5.92468
2.42806
7.31808
2.10127
6.28104
7.52779
4.64167
4.21995
2.21972
16.9938
3.03018
40.0868
12.2476
11.5475
8.42818
4.37873
4.11098
21.7117
1.77972
3.05234
5.2022
2.46144
6.4383
6.75037
14.3111
4.11395
4.90453
3.85591
4.57496
4.90284
2.85557
3.55158
6.96659
5.97343
9.90209
5.35692
2.1433
1.84231
13.3834
3.10934
3.98524
11.0208
4.60846
7.37331
3.8233
8.98125
2.22225
7.67179
5.4885
3.53741
3.31413
2.52974
3.6454
4.27531
5.0627
2.91133
3.61588
19.0367
3.03276
23.5911
6.33623
2.91463
6.97751
5.53677
17.0078
8.74751
2.32742
2.70035
4.54384
2.08829
14.2029
7.59966
3.76338
2.53221
12.2678
4.88318
13.6041
2.93492
3.0317
5.53153
3.20185
1.74398
11.3052
3.53578
19.8398
5.79888
3.32303
6.48221
1.71001
13.905
2.35677
6.81696
4.82567
7.14347
6.15382
3.01423
6.37079
18.3113
2.15721
5.90511
2.16031
3.7687
32.5308
4.71606
31.8236
3.60241
4.91589
3.90727
34.7308
3.5917
5.97252
1.9224
5.24266
8.45384
28.8759
3.72995
3.8964
1.81923
2.13886
1.75163
3.83352
5.49688
5.06058
4.0831
3.09454
3.47062
21.2861
6.17061
3.11086
5.14691
5.85064
4.44987
3.76968
3.41904
6.40729
6.66358
5.59769
7.69718
3.18006
3.75747
2.7158
3.24253
50.7959
3.91969
2.91972
6.81556
3.61224
3.92727
5.72923
2.56312
3.15023
23.757
4.11396
2.99763
3.84184
3.26825
4.95056
3.24114
6.78157
7.84731
6.86961
2.92296
6.11756
5.56076
2.40321
5.40031
5.65731
5.82786
7.81716
2.04682
3.87223
3.72929
2.99925
3.20392
2.51261
15.271
10.7861
8.72104
5.01762
2.61135
5.08115
3.4667
3.40898
3.58617
4.30632
3.90137
21.3465
5.38387
5.47164
5.62178
5.76687
6.49859
14.6162
2.29147
3.23022
3.37384
2.85124
6.62177
4.80732
4.40499
3.86657
4.15886
4.47073
1.93022
12.4369
3.32127
3.94184
3.6039
3.09317
2.73618
3.41243
5.99354
3.84773
4.24604
5.07605
7.47305
6.70659
6.73446
3.61663
16.6659
4.86617
16.1758
5.84435
5.98911
7.10043
5.62882
1.70407
4.39471
4.44826
8.15361
23.1283
12.9587
2.74636
2.7534
2.7569
4.65294
3.17374
4.90084
16.9582
1.91068
17.1007
1.79719
3.00934
2.65801
5.27652
3.3842
5.49476
1.692
3.30784
5.0895
3.33924
5.14778
3.56487
3.18737
4.90762
15.6198
4.49492
2.48308
4.20675
28.8068
3.49987
3.73331
4.21393
3.38583
2.70919
2.74349
1.91926
3.29018
5.79041
5.36112
2.70276
10.3982
1.52
4.19648
22.3552
2.89097
2.32248
2.26906
7.29812
5.53126
29.0097
8.92938
5.19802
4.40459
3.57714
5.65116
3.87245
37.4134
3.46206
3.87747
2.45607
2.16528
3.12651
36.544
7.89947
3.08473
5.36299
4.59564
5.06888
5.36441
3.17936
5.56961
3.1692
5.67152
22.3483
1.55382
2.38192
6.02582
2.33507
13.9493
16.4208
3.22093
2.0089
7.51433
10.1107
8.42181
1.48259
3.23548
3.30322
18.752
20.3034
3.12072
3.52386
23.6892
2.98922
6.99403
6.74674
7.95219
9.11123
5.94791
5.64329
5.69963
2.48904
4.23457
3.86107
10.5567
4.49828
2.09963
2.54693
3.26156
3.34164
3.46076
6.34782
2.36337
12.9517
3.99894
5.89802
6.14682
3.07983
2.63424
3.41993
3.66099
3.22776
6.19519
5.35835
3.9451
12.4153
2.35392
4.85563
4.64963
4.23315
26.8237
9.8592
4.99125
3.30669
15.3558
1.74937
3.66333
13.6086
3.22915
15.1055
2.49466
6.05028
5.46016
3.4421
1.77135
4.00654
10.8674
2.68156
4.06027
2.27582
8.83173
3.27377
1.78088
11.2105
9.02941
4.39623
4.55164
2.54311
4.68316
33.5494
4.89531
3.48532
11.9775
8.0731
2.87814
3.15022
7.10508
3.34682
28.015
1.85061
5.26502
3.9112
3.91493
18.0578
2.17585
3.9295
3.6166
38.5314
2.04311
2.98523
2.0741
2.51596
2.91702
4.26651
3.99696
15.638
6.90121
22.5125
4.37236
6.10454
2.96715
2.96553
2.18623
1.86805
3.31954
3.61299
4.29011
6.31528
2.19636
9.8072
3.18568
3.45986
2.09686
3.75636
3.48425
1.93798
3.33028
12.7988
3.24691
2.44731
3.4118
4.92619
3.6713
5.84486
12.2552
8.80944
6.51003
13.5503
5.38751
2.86098
2.30257
3.14508
2.84786
8.94083
2.89556
5.40093
6.85504
6.08361
2.83269
2.87873
2.84522
4.5831
4.05975
7.13675
4.72869
55.2999
17.3394
16.6795
5.12503
3.80376
3.80881
2.96111
1.50821
2.97727
4.10287
27.4283
18.1467
2.66828
22.4673
2.24769
6.71783
2.80286
3.55084
5.94451
6.27352
4.2821
6.80892
3.01804
1.68929
41.3246
2.03077
2.32878
6.12273
5.56229
5.11536
2.61063
3.36854
3.31618
5.51732
2.32739
20.3411
3.96821
4.88192
37.461
4.13611
24.0456
2.73678
14.8659
1.742
3.61683
3.13718
3.47147
5.04899
3.14894
2.71625
5.33002
10.5888
2.45389
2.88721
2.71389
25.2192
3.07093
3.86618
18.5494
6.66329
3.57681
7.31048
3.42479
5.67053
3.71496
2.80799
17.0229
4.5988
3.82829
5.76232
3.91514
3.20681
5.74993
26.3309
12.4555
3.22399
6.88598
7.06484
5.75199
4.62605
22.4787
7.47716
7.5912
3.09474
5.05246
3.5573
7.50569
25.4412
3.69965
6.72708
2.90179
4.03809
6.49708
3.49293
27.229
3.43834
2.7537
2.5173
38.2182
2.93781
3.07531
14.6604
4.01548
3.10915
16.8125
6.33655
9.25288
7.91959
4.26463
4.26309
11.7843
42.9869
7.08379
4.27329
3.87634
26.0993
7.48107
6.20895
2.27406
5.71497
10.1151
2.25272
6.65024
2.87161
3.38499
2.90151
8.78097
1.57783
3.54087
3.47032
5.72361
2.5474
7.16417
3.01427
15.4753
2.7671
2.81834
6.18765
4.96389
15.7322
5.44159
1.9543
22.2662
10.8257
4.3641
3.36341
3.09369
2.92096
7.24158
3.64806
25.3582
3.43929
4.2705
3.91436
18.2075
4.64887
11.6788
35.5638
2.42958
6.05076
5.72228
2.47734
17.1876
3.21976
3.27813
2.52385
16.897
1.60098
4.954
3.60624
3.91775
3.37277
1.72589
3.69514
3.25062
4.08574
3.8021
8.41517
5.80857
9.75136
5.05062
2.01953
2.4195
9.9044
4.98811
6.74102
1.648
6.9213
2.85322
4.01702
4.56587
6.11286
3.12301
18.9251
2.61657
2.65379
2.99311
4.89948
8.5046
17.3989
2.70015
39.6469
3.19018
1.85308
4.80054
4.38025
2.84402
5.9126
2.38953
4.97046
10.571
3.13257
6.11949
18.2898
6.05864
6.84199
4.59751
3.02085
2.53318
1.78513
6.1896
29.5112
4.62663
4.2267
14.1983
6.0933
3.13324
2.44359
5.95181
2.47052
5.15131
3.49606
27.5817
4.27843
11.3907
7.09665
9.98305
4.73316
54.8999
15.6107
5.18352
6.0251
2.91157
15.0432
4.39447
2.96673
4.01855
7.14561
3.43236
3.84322
3.36535
4.44015
1.72791
2.3579
17.4529
5.16056
14.7134
4.68793
2.79193
4.83071
5.33596
4.8172
4.48207
2.13794
4.16022
3.77894
19.1015
1.9905
37.8489
22.7874
3.5268
5.49712
6.1176
2.91761
2.20408
6.68298
10.8341
4.24719
7.30835
2.67684
23.3792
3.24829
5.75257
6.9501
9.76218
9.33769
7.89876
8.55491
24.0785
20.275
17.0711
20.5377
6.16806
3.1189
3.39704
5.39115
2.29578
2.84293
1.5825
3.63153
2.83767
3.41998
4.65673
3.33871
3.09615
13.9044
5.41489
33.891
8.89372
2.95562
3.63237
3.04554
20.8359
5.04211
1.82027
4.2886
2.94367
6.94801
2.32134
4.23651
25.3912
6.19729
6.69046
4.72143
2.95285
19.9697
30.2547
3.38336
2.9712
6.45482
20.1314
1.77924
6.68416
3.24257
4.64594
10.8483
24.0472
34.7327
40.7938
7.55113
2.43816
12.5613
5.26636
14.5081
4.29468
1.78503
5.75456
1.6498
15.511
30.7351
2.04749
1.93372
11.4127
6.47038
6.43917
2.16157
27.3884
39.6233
1.84013
8.9253
19.2569
3.30601
31.1113
2.64758
6.0924
17.7477
18.0435
18.3509
18.1698
2.83202
2.49664
2.9992
3.14863
8.25865
12.5359
15.464
4.44388
7.44273
20.415
4.72101
2.80272
15.6522
14.9518
3.47273
5.61722
8.35992
4.54056
3.15173
4.82265
5.09893
4.36556
3.96036
5.81022
6.47399
5.85232
5.68014
5.86473
4.78002
6.64771
7.22844
1.53514
6.53801
2.53625
8.00577
4.86474
29.543
2.56408
22.2574
2.75551
5.74833
11.7006
6.36043
3.00511
1.62077
12.2694
2.9013
2.8119
3.31776
3.19136
3.00999
3.37516
2.6295
6.68835
6.70906
9.67103
15.7411
8.96682
4.70194
3.76014
27.8519
4.4163
3.95478
6.21598
12.1719
2.85963
1.54525
4.77792
3.43276
3.75566
3.50065
3.49785
2.75274
2.38213
5.04242
6.50727
6.38687
3.56107
2.63857
2.13981
2.89559
1.59999
8.16005
10.1594
2.92489
3.30621
3.14141
3.18445
7.83369
11.7668
26.6849
19.5742
9.49165
1.65699
2.12251
2.45292
6.08892
3.40152
7.47338
2.95912
8.25561
3.73972
2.44158
1.58096
6.23401
19.7803
9.30178
3.91451
6.61568
2.57305
1.75848
1.87807
2.74815
5.7627
6.24204
10.6836
4.91076
2.95565
7.1402
5.59998
7.01241
5.33918
6.34468
3.28297
4.73491
2.89183
16.0449
2.15604
3.7579
4.50095
4.93684
26.5971
2.75016
6.54809
2.05532
25.664
26.1715
1.72567
2.7379
2.55614
3.83475
3.4714
4.22288
4.122
5.49985
5.76608
1.95441
4.4207
4.70589
2.62224
3.02448
5.71588
21.3565
2.62993
3.73907
3.59611
4.12359
4.40505
3.99236
7.5488
6.32824
3.26745
2.82561
5.52149
4.49713
1.57145
7.25517
3.87132
3.54902
3.5141
2.68506
24.5465
5.31537
5.69773
8.00503
1.77536
3.94046
2.42433
14.2225
5.41227
17.3922
4.85809
4.58478
2.43444
3.62753
1.63242
5.80782
3.93872
15.1791
3.79859
2.05594
1.67867
3.21279
1.96861
1.8992
3.45216
22.5434
31.0926
7.63341
27.7186
8.06374
3.82171
1.80179
3.91179
4.00517
6.30998
3.25443
1.99567
4.73355
6.10965
1.64151
2.22822
2.92825
3.30637
3.63787
2.17625
5.35481
3.07211
5.97655
3.05886
5.60126
3.26398
3.56692
2.75412
3.89382
3.21985
34.2417
1.91277
3.68865
2.36956
21.2889
2.84362
4.63705
3.26049
6.56001
5.56564
3.21668
3.1191
2.22244
3.08408
3.59799
3.10638
2.62847
2.34131
3.5704
4.96414
13.4852
1.5368
37.7451
14.0031
3.81701
11.4591
24.2723
1.43932
9.25174
7.53104
2.57403
20.8714
1.93893
3.03537
1.90376
4.0519
4.86573
3.16657
10.6607
9.57849
9.30964
14.8927
1.72855
2.99469
3.46958
4.38847
5.56499
3.30163
6.73941
1.70703
37.9585
39.1607
24.8585
2.5439
1.79832
4.95317
7.06887
11.7369
6.99426
9.80747
3.36284
21.4053
1.8999
2.93469
2.16895
5.69682
4.74894
20.1767
3.35169
4.68542
4.96229
4.53654
9.9614
2.60631
2.91724
11.507
3.2291
4.11218
4.53032
1.91899
2.21169
1.61412
13.1182
3.82371
8.59827
2.52751
11.0388
2.53924
1.95615
3.95301
11.534
6.57683
2.21723
3.78818
18.1828
14.3003
13.2684
3.16292
12.3429
4.30207
2.90371
3.49922
2.11253
27.4094
2.78382
13.6469
5.93678
2.01308
9.76522
4.84384
7.33729
1.87009
2.23242
14.3934
4.46909
4.40235
4.63524
7.93696
2.65046
1.90477
3.38267
29.0547
56.9957
2.15396
6.9654
3.78383
14.9236
2.26525
5.36375
5.37127
13.8009
6.82183
4.91986
6.26606
1.58738
3.44969
1.76283
7.93433
7.75629
6.93274
7.15802
2.40317
2.22493
3.46758
3.20143
6.34364
22.115
6.42489
6.32507
3.43352
5.90415
4.32245
4.65764
19.1817
7.3947
19.7386
3.69193
4.27336
2.23059
3.67506
23.3928
4.53131
6.52277
4.3969
2.12748
4.52761
17.0527
2.54911
3.45823
6.38606
6.75982
15.7747
6.12959
7.53421
23.6649
14.8165
14.5548
6.63542
6.4278
5.98613
20.1708
2.71971
2.68703
3.49199
30.6812
2.6476
6.09486
2.29179
24.0496
7.05346
3.57318
3.54444
2.77211
3.83134
4.40137
3.64509
2.11315
2.25344
31.5684
6.25743
29.3006
21.7445
2.02653
3.07839
10.15
13.0612
13.2157
12.9266
30.0794
18.5367
3.11938
1.60134
6.00435
2.67674
3.49774
28.2668
1.97473
5.50925
7.2338
4.73223
7.14279
5.65703
3.53007
3.01304
2.83513
6.85164
38.6033
3.89652
4.31641
3.13111
9.30795
9.31218
19.7222
12.5818
8.36399
2.48844
7.33775
3.15423
19.4301
3.68635
3.43596
1.78854
7.03582
3.61053
3.25448
1.95199
5.55246
16.2959
3.95717
4.5292
12.5011
11.7534
12.1279
14.0977
7.52552
4.16084
5.32291
24.637
23.6658
21.9662
22.3976
15.7219
8.0225
8.57637
3.55028
8.83466
13.7614
21.6264
1.50915
11.5592
7.65824
6.75425
8.64445
3.1541
3.77666
16.3814
4.06133
6.09188
7.54
2.44917
5.06273
8.96505
17.8425
3.27559
3.02078
1.98051
5.10672
1.83353
1.83584
4.57556
8.39699
4.89396
3.24519
2.11548
4.53139
4.11744
8.31707
3.78554
2.075
35.3632
3.30444
2.41712
2.57636
12.5425
2.46632
3.91378
3.60409
3.45925
5.08399
4.84519
3.91222
1.95451
4.14205
3.82713
2.84519
4.4828
3.95686
6.80852
6.82989
2.2246
4.93822
2.94082
1.76004
3.77726
6.22364
2.13581
4.96563
3.26488
4.08371
8.06231
5.27693
3.28353
6.83541
2.3354
8.16194
3.87402
3.30664
1.68893
2.78189
1.9987
2.31352
3.77437
15.5975
32.4096
17.7612
12.8067
5.70206
3.98982
5.43656
19.7242
7.02701
19.0115
5.89404
4.2989
26.6165
4.38762
27.1924
18.5224
3.08933
4.0443
5.67246
2.52327
3.64221
4.4528
3.53413
8.82798
3.81684
8.17852
4.09707
8.37301
2.47591
3.8104
7.39973
3.27578
1.90909
8.122
4.94289
4.81146
4.57243
4.79533
6.00392
4.12637
4.18158
8.60757
13.8723
7.2073
5.44973
4.49875
10.6035
23.2277
22.3192
23.6807
4.54767
3.57069
6.63038
5.6165
2.71916
16.298
2.88307
6.39874
3.00112
23.9787
4.48873
2.21928
3.30639
5.68542
6.18386
7.06395
6.04854
3.79579
4.96222
8.23384
7.66783
8.19065
3.07848
2.0599
2.2181
2.24499
15.0649
8.06284
4.71802
39.0083
2.73767
15.5058
6.10454
3.05933
6.6961
2.00862
7.76149
9.46274
9.16649
8.48604
7.74098
8.08793
5.73173
5.52689
5.45613
2.60078
13.9694
3.95846
6.87182
14.2052
3.13587
2.77319
7.45432
5.73732
3.663
2.49349
4.71315
4.404
19.0067
4.93706
4.48277
4.40754
2.76679
3.23161
14.2007
4.36896
2.88062
2.85844
2.94294
5.80572
4.0359
6.0063
21.3102
12.5724
18.4928
3.69581
2.66483
9.42217
9.09795
9.81912
4.82018
22.4252
4.18624
4.65181
5.21993
6.4038
5.61557
30.0884
2.4404
6.45829
6.84656
7.37701
4.39439
5.73325
2.64321
2.33384
2.74147
6.07392
5.62492
2.13882
4.39948
4.03332
1.95931
7.69497
7.77905
7.93918
8.14011
9.60581
6.97478
2.94778
5.41124
2.64469
2.32871
7.67805
2.98119
9.19509
10.7448
5.17706
19.4865
7.14488
9.45537
5.16268
4.91174
4.2275
4.03621
4.88639
5.62515
6.14183
8.78648
6.60939
5.08165
5.02287
2.06774
6.91289
3.61893
1.91335
3.92912
1.45886
3.69226
16.719
2.98707
9.14093
3.42545
16.329
6.92866
11.2913
5.49125
6.3071
5.95345
5.96088
2.75835
1.85069
1.87923
8.81038
2.94985
7.19731
3.29125
3.54783
4.0785
7.45246
3.09043
11.4037
6.98349
3.02705
4.56489
3.8978
7.08393
3.88972
6.79887
3.19651
2.35859
3.53167
2.60406
3.13719
6.54097
6.69979
2.69904
4.6779
5.62999
25.4516
5.39726
13.2626
6.95296
3.33149
9.40786
7.68798
9.91658
2.56964
3.15931
21.9765
5.75395
5.26115
6.26849
4.88384
4.70538
8.37575
8.94425
6.29516
2.39625
2.78182
2.80227
13.3752
2.71603
3.11935
2.7667
6.05291
9.4316
5.29367
9.93172
3.73327
4.49976
5.91638
18.1493
2.62697
1.87099
4.50284
2.58175
5.16018
4.48319
2.06148
4.80258
4.88692
3.55797
3.51867
6.41966
11.7231
4.21174
3.90173
9.24217
3.37938
5.76765
3.37161
4.74522
2.81698
3.19016
5.4707
8.43068
16.6177
3.63814
2.04919
2.75939
28.2733
3.03266
14.6229
8.03176
12.7632
3.86079
3.61015
7.07625
16.629
4.4141
4.10446
11.4952
17.2673
20.5799
3.45018
3.09026
2.16092
5.73387
3.01261
5.28865
9.43497
3.85389
8.35166
3.24804
14.594
4.16412
3.77214
2.01196
4.87386
31.5093
5.62387
16.4555
2.96008
3.72643
3.43983
4.68865
5.39879
2.90566
6.07858
5.87992
5.23604
4.85046
2.18181
15.3595
3.27594
7.0197
4.75485
4.67207
13.0666
20.0471
14.6693
15.1022
2.66964
4.43747
5.59335
3.67743
8.34841
4.00689
3.96547
11.4434
2.22233
3.36661
3.80778
3.61033
4.82808
12.34
6.36189
5.67633
3.7016
4.8337
7.76508
4.43216
5.16888
3.18471
20.4914
3.30455
9.30539
13.749
17.1833
2.96026
2.82447
7.4571
8.19806
10.5103
9.74181
12.7191
19.6802
16.7769
4.00029
7.71626
4.17942
4.43133
5.61126
26.4285
3.03333
4.39591
4.80653
4.91419
5.22625
7.70258
4.90412
4.1116
5.56653
9.29086
3.3269
1.76773
6.00247
8.94883
9.90475
3.4858
3.45807
7.32791
2.6474
3.02609
3.83831
8.75412
8.48893
5.91793
1.52407
18.1917
9.1022
3.30473
8.24818
2.84455
4.38714
2.69168
6.35671
6.72097
8.7712
9.6802
19.3216
3.57653
3.16215
3.93291
12.0023
6.75997
6.04988
4.40381
2.64161
19.2202
6.83192
4.98608
6.0206
4.51306
29.202
30.1545
5.5659
8.87635
2.03664
2.78378
5.92961
15.592
7.14447
16.1132
2.73578
27.0724
35.0604
11.4186
3.49409
7.20467
6.30068
9.07122
2.73408
14.355
8.89392
6.06966
3.41232
9.03687
3.9921
1.81474
4.13094
1.8441
3.733
3.31656
21.6542
2.68998
7.18529
18.189
12.7898
2.8759
12.5658
2.32662
2.32335
11.7886
2.73391
4.07095
3.70584
2.456
11.4563
2.2196
1.92797
4.56306
1.88509
16.3988
4.90849
4.61583
3.18664
11.7542
11.6571
11.7988
12.4709
12.9019
13.6224
4.98747
14.9652
19.7422
7.03936
7.29934
15.3354
5.42111
2.38238
5.13468
9.50546
3.79944
3.30817
1.89005
2.87146
1.63937
10.029
18.5087
1.54264
5.24738
11.083
3.2248
2.30723
5.30099
6.35475
4.18964
3.36556
4.08949
3.71707
2.66786
5.40148
4.84706
2.43453
1.70396
8.25321
2.7823
3.35016
6.12843
2.09748
9.67936
4.87654
7.48993
3.40926
5.70425
6.21405
3.13248
2.7636
4.68535
2.33717
32.3459
4.5232
3.14541
2.75999
2.04789
2.7348
6.78787
16.6938
2.82864
5.75245
6.90137
7.84277
8.49823
4.43864
20.1653
2.2098
2.89488
11.6725
8.69155
2.05419
3.06936
6.11031
40.7432
9.59731
3.42834
3.85274
1.90275
12.242
35.8342
2.57679
9.28344
2.80697
2.3561
3.77802
26.3463
2.0322
4.5122
3.47699
2.02821
3.56276
2.04142
6.06467
5.76498
5.50309
1.9936
7.88752
3.38533
7.40844
16.613
5.04639
4.8441
5.48178
4.69349
18.2474
3.33195
9.85413
9.94653
13.438
8.82215
3.44926
22.5803
3.17904
6.90179
8.09628
2.89242
6.59087
6.90362
3.07379
2.75786
6.21763
2.04203
8.54212
9.49487
8.84934
5.17459
2.73292
3.83215
3.01465
4.31595
2.91499
2.86532
3.22345
3.14298
12.3326
12.3142
3.23314
3.0429
2.97968
2.58334
40.9101
2.57935
43.3808
6.51482
3.06757
9.53898
10.378
2.78754
5.79509
8.97216
3.47132
1.85405
4.11931
3.04883
6.84598
2.97721
12.5884
3.18405
31.3175
3.53779
16.1772
2.50667
20.4779
1.94225
2.14432
18.1942
7.79143
4.04202
5.69846
8.23961
7.03971
2.83026
3.32399
2.59492
12.8524
34.7845
2.3674
11.0595
2.4845
7.05338
3.90563
3.4447
2.42091
8.90692
7.72331
9.78675
2.69076
3.47288
15.1104
15.9829
9.12074
9.33468
3.34384
2.09022
8.60188
6.40506
1.87014
5.56712
3.04687
2.76825
2.20136
3.63215
18.0025
2.67049
3.95997
26.324
12.2623
27.6409
5.04883
5.97168
16.5347
2.93532
9.01754
11.3753
8.94762
9.95034
3.42133
4.46747
4.20091
1.89812
19.2127
2.42014
3.38718
7.21557
9.81984
3.77444
9.15357
3.1556
1.73349
4.0976
3.3355
26.4753
2.90105
9.35773
25.3479
3.32055
11.4121
6.77789
5.67344
18.8436
7.81826
3.327
9.9158
11.4765
5.06225
4.56415
21.4383
3.35333
2.68927
2.63295
3.6925
2.66504
26.2486
12.269
1.8445
2.70353
8.40123
18.8655
4.28644
6.10895
3.68691
3.44103
2.87539
7.25046
3.93534
4.51266
4.14563
3.89044
3.55796
3.73552
1.9435
10.9477
35.2874
12.7696
3.04298
5.52955
10.1285
2.52193
74.0486
17.0396
3.55519
2.16706
2.2544
7.92784
2.9575
2.92925
4.01969
4.36125
2.83468
10.4056
6.3058
8.32821
8.91452
3.59396
15.3702
23.7108
4.95483
2.90148
9.0437
5.67411
2.04598
5.51674
5.13008
2.47697
3.91492
4.57754
13.3428
2.8754
8.79651
8.59932
8.28799
32.9308
5.27708
9.76954
2.68451
6.4635
5.6321
3.95713
6.02928
3.65085
12.5635
1.98735
3.13363
5.0055
5.93506
2.56092
6.40132
8.65888
4.04475
28.828
1.98471
6.42068
6.6587
10.1497
7.96658
23.6755
6.06047
20.8193
16.6313
5.4244
9.22085
16.8794
17.1386
8.39103
9.77909
6.20268
14.7562
7.82819
2.01683
4.28505
3.93
3.31324
2.8339
37.9165
7.73138
22.8041
10.1994
3.02515
4.86582
5.02476
6.65792
3.01821
2.29558
11.3373
9.05254
10.8846
2.93436
3.75222
7.50661
2.78933
6.44051
39.5346
4.36608
12.0933
2.53046
2.94771
16.1805
2.77577
9.26647
8.6244
2.02194
33.2313
10.2582
6.72623
12.2376
12.3805
9.10873
11.7108
4.23938
5.60755
10.1099
2.87365
9.13375
8.88915
4.75606
23.4968
3.14003
6.28407
4.5499
6.851
4.14328
2.93196
3.01065
6.52832
2.2831
3.69592
4.24069
9.64828
4.16117
3.3897
2.91627
7.7568
1.80912
4.10902
4.10606
3.37138
13.328
4.36836
9.70071
2.12343
10.8965
9.30129
3.88411
5.22715
4.51141
2.72239
3.69264
17.635
2.01153
5.01567
2.94707
2.69952
3.37081
3.44221
10.3278
2.01008
3.42222
4.79417
4.05922
2.32562
2.3909
4.03111
2.11381
4.02384
1.67862
4.37929
4.33074
3.58715
13.8471
4.9639
4.37017
5.06424
6.50089
5.15901
15.0763
3.55223
2.06683
4.63717
9.20347
2.93595
2.53307
6.66732
16.099
2.88784
4.46644
5.65663
3.15146
3.69052
2.16506
4.88324
24.1426
20.6316
1.46956
1.92153
2.99525
6.76
4.96943
4.58697
3.67428
4.35897
10.9883
4.06084
1.80678
3.8697
26.8728
9.78511
28.2648
24.9494
3.54072
2.14467
4.83702
4.34822
4.14805
16.6212
2.49688
1.82918
2.14678
13.6775
1.88794
2.45773
3.4621
8.49064
3.85048
4.91038
6.60888
6.57065
5.41458
3.16932
6.80319
3.42587
3.57456
7.59245
9.24759
2.52274
2.30174
5.83639
4.68896
3.93579
2.54402
8.76215
2.06026
19.0497
2.46585
3.56558
7.25377
15.7477
4.35425
6.00703
4.53628
36.5229
2.72944
4.03083
13.9632
4.60323
4.64429
20.2344
2.55155
2.09481
8.0919
5.3461
5.62979
5.3969
4.18591
13.6551
2.18479
15.4142
8.35785
5.86094
3.72719
4.8328
2.97065
2.80272
2.99135
1.92722
2.84797
12.513
5.46921
6.8926
5.08405
3.25315
4.33568
2.54225
1.7499
6.0503
16.4299
11.7059
4.98589
19.9146
4.4703
17.5984
9.77849
11.9614
2.86191
2.78952
17.7717
10.4794
3.50638
3.45457
5.18304
3.3174
2.57289
7.17625
2.79385
11.9674
3.1006
3.23006
14.3332
5.36224
5.10765
4.24462
3.14424
6.48072
5.71453
3.04054
5.73197
3.16157
3.30007
2.51353
4.16357
10.7743
2.89624
5.27561
11.5613
3.0835
1.97109
4.4527
4.05531
1.94268
6.07763
7.78074
6.48219
7.79421
2.90582
11.2886
10.264
2.43727
4.52472
4.14928
5.76606
2.17115
5.01011
5.7426
3.37914
5.21619
5.22357
4.42442
4.01034
15.7869
3.34612
5.0959
2.5097
14.3893
6.71468
24.1145
12.3953
5.50668
2.10587
2.4462
2.6357
5.7434
2.70403
2.65427
21.8374
3.96469
3.09238
6.30043
8.00268
2.47304
4.38887
4.29702
2.78503
37.8931
8.33594
5.02574
3.43625
15.8539
9.81982
5.44406
2.51053
3.19872
11.9519
3.95153
10.9285
5.00386
4.84462
4.71959
1.68253
8.24182
27.2725
25.0926
26.9304
29.1442
33.2994
32.4336
30.9694
29.9586
4.93742
2.38333
2.30512
3.86577
23.0526
10.6657
3.30607
3.61543
6.87369
10.5419
4.24892
3.63791
3.11703
20.3941
6.16097
1.66178
19.4629
2.83247
24.0818
2.74955
4.8415
2.52759
9.39279
27.8649
1.95371
7.5058
10.6141
13.1939
5.9419
15.9717
6.37015
3.47008
4.53737
2.17979
3.45727
14.806
3.29724
30.1778
10.3934
4.93979
5.62584
3.49696
10.7017
2.07694
3.74721
4.23981
2.21956
6.02037
27.9093
8.89652
8.9857
10.617
1.91677
13.3873
5.41961
4.86982
3.94671
3.61304
10.1699
5.62601
5.30315
4.48521
4.32794
8.10213
24.5562
5.54118
6.59361
4.83064
2.34725
5.14071
6.85784
5.72115
57.9215
18.6149
5.33484
6.00349
3.56138
2.07388
9.49381
15.4048
5.89188
3.66653
10.7141
2.68269
2.11292
1.50556
3.82183
2.90898
5.90888
5.28131
5.05842
3.45366
8.76925
3.59513
3.9301
3.85432
30.3136
13.1334
10.9507
10.17
15.5249
3.25974
6.49548
11.2611
3.37451
3.30769
3.71115
3.32049
3.47681
6.41621
3.56102
2.60638
8.57368
2.77546
4.51617
3.18377
5.03928
2.44495
38.0394