/*--------------------------------*- C++ -*----------------------------------*\
| =========                 |                                                 |
| \\      /  F ield         | OpenFOAM Extend Project: Open source CFD        |
|  \\    /   O peration     | Version:  1.6-ext                               |
|   \\  /    A nd           | Web:      www.extend-project.de                 |
|    \\/     M anipulation  |                                                 |
\*---------------------------------------------------------------------------*/
FoamFile
{
    version     2.0;
    format      ascii;
    class       volScalarField;
    location    "2000";
    object      p_rgh;
}
// * * * * * * * * * * * * * * * * * * * * * * * * * * * * * * * * * * * * * //

dimensions      [0 2 -2 0 0 0 0];

internalField   nonuniform List<scalar> 
26307
(
0.287099
0.159337
0.107368
0.0421702
0.127905
0.18494
0.0608648
0.234361
0.099937
0.270096
0.255212
0.176928
0.163627
0.0994454
0.050969
0.14554
0.133445
0.0562986
0.140108
0.164888
0.174449
0.279421
0.0570657
0.0312093
0.143453
0.177958
0.186343
0.0330039
0.18473
0.174411
0.0554366
0.20322
0.0882115
0.192193
0.189088
0.265996
0.249186
0.153501
0.134458
0.259099
0.0988738
0.0541396
0.176892
0.129464
0.111234
0.0307641
0.145022
0.220352
0.252528
0.108316
0.0813193
0.159593
0.177218
0.126146
0.15661
0.137964
0.127053
0.0985284
0.213871
0.137186
0.0512812
0.0964748
0.0544059
0.0283276
0.165113
0.0673992
0.219684
0.126243
0.154491
0.256797
0.217386
0.140483
0.275605
0.0473046
0.0432799
0.252587
0.174539
0.107183
0.175047
0.0628603
0.109861
0.273463
-0.000320804
0.223002
0.283214
0.224446
0.17379
0.153792
0.26633
0.056443
0.283598
0.13085
0.13668
0.120506
0.0486658
0.168511
0.116477
0.0943112
0.180974
0.149442
0.0535088
0.108855
0.273398
0.287636
0.157583
0.0865744
0.0721529
0.147928
0.287529
0.138184
0.250146
0.0196793
0.127617
0.239406
0.0461503
0.0167208
0.0210197
0.103379
0.203463
0.286164
0.270364
0.129438
0.0979281
0.0949562
0.133642
0.129332
0.205853
0.0634778
0.0495056
0.115575
0.113853
0.0712743
0.254683
0.0958765
0.181019
0.166837
0.204469
0.275541
0.170464
0.175946
0.285441
0.177473
0.0750292
0.0676192
0.264847
0.201041
0.185996
0.177104
0.120391
0.133889
0.250415
-0.0171223
0.184132
0.261642
0.260759
0.182608
0.145442
-0.0398346
0.137632
0.062219
0.0827054
0.168759
0.134952
0.180173
0.285145
0.21836
0.159896
0.202617
0.105275
0.231442
0.268211
0.270612
0.260334
0.168677
0.0333848
0.155079
0.069741
0.279176
0.270482
0.234981
-0.0456134
-0.00382656
0.263295
0.122876
0.183801
0.135766
0.0919733
0.0631221
0.0471087
0.183673
0.182612
0.142528
0.0571594
0.276929
0.139696
0.271191
0.058725
0.228764
0.10541
0.254267
0.0283892
0.2799
0.0891031
0.128451
0.155026
0.0314978
0.12779
0.0562651
0.180004
0.135824
0.139158
0.169436
0.299744
0.124311
0.172645
0.230133
0.176594
0.178326
0.264404
0.0580611
0.168698
0.13903
0.0639022
0.178809
0.13436
0.274304
0.0300138
0.178532
0.2496
0.154269
0.1746
0.138396
0.0215257
0.0896875
0.273802
0.180625
0.267807
0.137597
0.147761
0.130278
0.0452209
0.0451149
0.155276
0.174675
0.170407
0.158884
0.174517
0.206509
0.169436
0.174308
0.210405
0.273163
0.0860863
0.0831563
0.122006
0.0830326
0.0933203
0.128587
0.0388277
0.178635
0.270688
0.00400617
0.105288
0.121442
0.270285
0.0996151
0.0711884
0.207619
0.268596
0.137526
0.207572
0.234334
0.223876
0.0382709
0.269645
-0.00714101
0.186973
0.132094
0.139729
0.113667
0.178534
0.184031
0.165688
0.106754
-0.00163805
0.174574
0.0762579
0.0704825
0.0856516
0.203169
0.104294
0.0820393
0.278776
0.190816
0.190431
0.177878
0.179043
0.176569
0.193773
0.077144
0.179299
0.096349
0.186968
0.189527
0.103918
0.112773
0.0854888
0.131695
0.233964
0.0660049
0.261064
0.0816563
0.238099
0.178197
0.113401
0.0608807
0.0354747
0.164126
0.265939
0.105091
0.127002
0.177997
0.0976882
0.174315
0.116811
0.0901929
0.147105
0.215997
0.239035
0.167568
0.266136
0.0775238
0.0414683
0.19365
0.173671
0.120095
0.285427
0.158808
0.266164
0.172557
0.0337763
0.0400176
0.279243
0.270888
0.102981
0.191569
0.17401
0.257841
0.182909
0.180136
0.196126
0.0609262
0.0335439
0.145306
0.18191
0.190259
0.169259
0.0535584
0.0263296
0.186482
0.187036
0.299262
0.176952
0.0471589
0.087717
0.109058
0.260284
0.17986
0.15365
0.18702
0.184546
0.194192
0.153843
0.180054
0.174919
0.273805
0.273179
0.244926
0.174356
0.132566
0.236602
0.270484
0.0582336
0.0233459
0.0549793
0.209565
0.22565
0.262228
0.187425
0.278237
0.179474
0.196299
0.0898473
0.125416
0.211844
0.261044
0.0904231
0.151253
0.12247
0.0490512
0.122412
0.103224
0.161447
0.104682
0.26821
0.174158
0.168518
0.0470124
0.193653
0.0421957
0.104381
0.105825
0.28048
0.197586
0.0990169
0.178627
0.0863583
0.0538436
0.0531228
0.166787
0.0620194
0.124946
0.127046
0.0568652
0.201274
0.259832
-0.0191006
0.103993
0.280105
0.104102
0.27406
0.288025
0.168418
0.230094
0.0658358
0.258403
0.115992
0.182084
0.195806
0.198884
0.122787
0.188325
0.0792871
0.189077
0.270025
0.023861
0.180921
0.282314
0.140569
0.273645
0.199041
0.112542
0.182647
0.119871
0.282271
0.168522
0.171638
0.141667
0.166233
0.0608984
0.130434
0.063076
0.130926
0.186021
0.182096
0.264723
0.141278
0.041144
0.0497782
0.137059
0.268715
0.17858
0.193936
0.187707
0.188579
0.184887
0.145433
0.145202
0.0167405
0.142684
0.183942
0.161026
0.0703069
0.135694
0.127371
0.154518
0.196804
0.110253
0.20443
0.0989129
0.167429
0.174744
0.157332
-0.0188154
0.148627
0.183928
0.187169
0.285769
0.0550041
0.0688833
0.281831
0.172345
0.173393
0.0610933
0.234919
0.232676
0.27963
0.145199
0.173347
0.180842
0.0752065
0.072082
0.117255
0.116928
0.187281
0.142027
0.0853305
0.175683
0.178495
0.183661
0.0430493
0.183347
0.174457
0.0333881
0.157303
0.137194
0.055631
0.188357
0.254073
0.105481
0.165026
0.19128
0.180508
0.135875
0.112483
0.195286
0.0574671
0.155972
0.167026
0.124884
0.172896
0.197372
-0.00698314
0.184514
0.137952
0.218466
0.0140954
0.162967
0.0620804
0.166097
0.0938056
0.239658
0.0909886
0.15595
0.0419294
0.168462
0.167611
0.192509
0.192588
0.0679158
0.179298
0.169238
0.244166
0.0806582
0.0940864
0.217991
0.0590348
0.156584
0.133492
0.171306
0.0688359
0.136362
0.14846
0.167937
0.0728808
0.0417547
0.0879948
0.243378
0.194098
0.0732498
0.172323
0.179718
0.0596687
0.0677681
0.0814407
0.194375
0.186257
0.260593
0.0743656
0.134972
0.100474
0.168286
0.0735915
0.0764706
0.109784
0.267661
0.237655
0.175413
0.107126
0.127569
0.168851
0.265243
0.167638
0.0579325
0.289367
0.0400451
0.101238
-0.0303849
0.098491
0.0984552
0.0528146
0.0540504
0.153327
0.128344
0.232681
0.172991
0.20144
0.272199
0.140507
0.10385
0.207691
0.224925
0.0598482
0.263945
0.17167
0.286891
0.239641
0.17391
0.0962985
0.142913
0.180779
0.187666
0.0790699
0.171515
0.18647
0.00450617
0.271669
0.158518
0.160441
0.0923123
0.270122
0.135539
0.245999
0.103869
0.169739
0.191757
0.217589
0.27174
0.169329
0.10061
0.269863
0.171022
0.102663
0.0691268
0.166432
0.17188
0.276773
0.0550743
0.106696
0.0354728
0.286061
0.062936
0.273265
0.0721221
0.17123
0.184874
0.0281395
0.113306
0.104011
0.276472
0.159686
0.0605063
0.0158239
0.0661941
0.186458
0.0456489
0.186206
0.1853
0.151283
0.0391317
0.174467
0.168036
0.0791688
0.0844363
0.167656
0.163559
0.0808552
0.135646
0.195092
0.173797
0.0987829
0.0922348
0.190773
0.100411
0.133464
0.144484
0.0625681
0.0339429
0.1572
0.148646
0.181236
0.0382897
0.170324
0.0963699
0.0376771
0.145592
0.181903
0.246355
0.184838
0.167688
0.16711
0.183575
0.186229
0.153267
0.145597
0.174207
0.13313
0.195456
0.171179
0.109278
0.252982
0.132308
0.194045
0.165277
0.186731
0.148296
0.129095
0.178332
0.168819
0.0639074
0.0998576
0.108543
0.167203
0.196634
0.280342
0.11061
0.177936
0.126903
0.1809
0.169008
0.20532
0.0619738
0.194901
0.111772
0.18762
0.168899
0.183984
0.181809
0.168411
0.127584
0.0213656
-0.0148342
0.145597
0.169461
0.250933
0.181364
0.173509
0.153229
0.170108
0.0438757
0.172465
0.182753
0.0316271
0.07114
0.0805782
0.0948845
0.171913
0.136443
0.269327
0.228226
0.169232
0.170602
0.174942
0.176224
0.140962
0.149974
0.0561775
0.134051
0.148583
0.255323
0.130911
0.10455
0.0397962
0.16485
0.0994134
0.127508
0.0635792
0.0981107
0.200128
0.175458
0.100122
0.039009
0.168289
0.128127
0.175178
0.128634
0.130808
0.170909
0.153105
0.0983126
0.292449
0.249856
0.164368
0.257057
0.212787
0.0941921
0.170375
0.0607363
0.129117
0.0945479
0.0376527
0.145832
0.191489
0.251363
0.191454
0.180949
0.167376
0.275108
0.181273
0.115684
0.187974
0.177437
0.147986
0.103767
0.0892124
0.290594
0.100033
0.0867097
0.056173
0.150969
0.173184
0.165789
0.181276
0.174089
0.262486
0.14168
0.0792356
0.179682
0.169307
0.126369
0.057762
0.272439
0.220868
0.0473563
0.172287
0.247965
0.23392
0.105434
0.183698
0.190015
0.0452749
0.170894
0.169436
0.283771
0.136246
0.25527
0.275213
0.124168
0.11389
0.0520069
0.0472324
0.143726
0.263684
0.0234353
0.0614806
0.256418
0.231089
0.0497736
0.192572
0.108108
0.0670195
0.0633232
0.110135
0.0937603
0.124999
0.122505
0.0860813
0.152417
0.274041
0.19184
0.0588133
0.177617
0.126445
0.172689
0.268237
0.26076
0.176539
0.18714
0.057366
0.092657
0.170737
0.0461487
0.169276
0.0955976
0.102477
0.257529
0.274052
0.13734
0.246242
0.00140957
0.25994
0.166964
0.0397802
0.276096
0.172221
0.0923723
0.108443
0.15711
0.04186
0.198379
0.0566575
0.0505135
0.129126
0.1607
0.0247292
0.105277
0.0452067
0.105147
0.232848
0.169061
0.0698602
0.274892
0.12741
0.0920064
0.220704
0.17628
0.26885
0.0539106
0.166636
0.0498342
0.135571
0.166094
0.218065
0.184404
0.194268
0.179501
0.0577632
0.157337
0.103599
0.254557
0.160366
0.288164
0.126031
0.116264
0.134067
0.107576
0.172733
0.102629
0.122275
0.17292
0.168271
0.0727474
0.189117
0.17706
0.19356
0.281639
0.0752904
0.243407
0.142904
0.218215
0.145046
0.167415
0.261295
0.280527
0.259639
0.166313
0.268046
0.141286
0.300633
0.130326
0.0161808
0.124776
0.171681
0.110148
0.189199
0.130286
0.0957504
0.0863312
0.0839183
0.0860038
0.12269
0.188595
0.179589
0.180983
0.132687
0.137145
0.0360438
0.0551927
0.274509
0.131345
0.189489
0.163208
0.190639
0.26773
0.143676
0.27787
0.238048
0.136496
0.168491
0.192821
0.167279
0.277688
0.261058
0.158641
0.168403
0.0658776
0.139236
0.182184
0.0888943
0.100861
0.102509
0.191327
0.193686
0.154969
0.00504476
0.0563665
0.0522497
0.0212681
0.0641179
0.104073
0.103491
0.118019
0.134193
0.16596
0.27208
0.0865082
0.105493
0.181873
0.180431
0.148225
0.267812
0.0982075
0.176526
0.261755
0.100473
0.0568334
0.172689
0.0285424
0.187514
0.133148
0.168588
0.167502
0.1082
0.105533
0.103866
0.181132
0.0980312
0.17691
0.184103
0.113109
0.104662
0.15443
0.136078
0.19437
0.276821
0.271044
0.170041
0.167958
0.171448
0.25059
0.0570372
0.270679
0.123923
0.180504
0.142494
0.210955
0.109004
0.183809
0.201459
0.0766615
0.174155
0.168815
0.276568
0.17361
0.140579
0.103356
0.195613
0.059632
0.148894
0.0485347
0.2645
0.0633667
0.107183
0.0672098
0.183927
0.157197
0.176248
0.0566698
0.0604752
0.0897672
0.136437
0.173768
0.221
0.111171
0.16712
0.167156
0.189488
0.135883
0.108959
0.218049
0.169763
0.225243
0.196018
0.0587207
0.298914
0.177815
0.142045
0.108153
0.133154
0.169913
0.184677
0.13591
0.185065
0.27219
0.294773
0.256494
0.177393
0.184198
0.105587
0.0780768
0.136533
0.112958
0.176417
0.172771
0.165988
0.181972
0.18335
0.189329
0.181379
0.102261
0.179327
0.0416503
0.0583849
0.179047
0.0876397
0.22829
0.131273
0.145956
0.130507
0.118199
0.117088
0.205622
0.0657428
0.18216
0.169257
0.110887
0.159102
0.056743
0.171985
0.165298
0.0629413
0.163362
0.179834
0.102995
0.169001
0.158674
0.164495
0.162216
0.166675
0.146148
0.19062
0.126689
0.157257
0.21845
0.0977029
0.128584
0.168131
0.182961
0.240532
0.168569
0.271344
0.188485
0.110628
0.263439
0.143103
0.112313
0.274955
0.166534
0.0402912
0.147685
0.13126
0.296908
0.0912088
0.167729
0.17004
0.180941
0.166355
0.274763
0.153747
0.192665
0.193726
0.264879
0.186824
0.108522
0.197533
0.0479912
0.0415448
0.0629456
0.16901
0.182481
0.154286
0.0546975
0.171825
0.190943
0.192984
0.296959
0.186749
0.186038
0.174444
0.249178
0.180432
0.272401
0.0499455
0.0459621
0.166787
0.174838
0.174256
0.0893687
0.0891405
0.12648
0.0928489
0.0917943
0.128902
0.0589173
0.134066
0.0883495
0.0516437
0.128499
0.221656
0.180597
0.277721
0.16608
0.122774
0.0970273
0.0374392
0.118829
0.0794011
0.27568
0.167422
0.105709
0.168414
0.181989
0.179137
0.22524
0.107364
0.0452231
0.165889
0.272821
0.110031
0.272793
0.146872
0.148038
0.161626
0.186963
0.0403161
0.167805
0.176268
0.0667886
0.171572
0.25283
0.0999748
0.263498
0.16797
0.142418
0.0262427
0.152814
0.17637
0.0548753
0.133694
0.168804
0.0559126
0.178016
0.166669
0.258012
0.10275
0.160907
0.00577525
0.170567
0.0962364
0.112
0.0557426
0.0558393
0.176632
0.259149
0.195223
0.192688
0.0313922
0.138779
0.0575695
0.183384
0.195888
0.183358
0.0825045
0.173885
0.271881
0.16869
0.166829
0.147126
0.178376
0.194672
0.171177
0.182369
0.186815
0.178748
0.243864
0.285834
0.0967236
0.152831
0.179589
0.135875
0.169858
0.171575
0.225796
0.112484
0.0316868
0.0998812
0.18014
0.0613542
0.110478
0.0955449
0.132891
0.103762
0.179115
0.15526
0.0801657
0.11422
0.160962
0.184807
0.289658
0.176127
0.197345
0.110225
0.0502276
0.0669582
0.128392
0.175625
0.184645
0.135307
0.140614
0.141227
0.12152
0.139706
0.178233
0.168436
0.130453
0.170545
0.0707844
0.183605
0.166221
0.0266842
0.0648551
0.188345
0.217374
0.180977
0.273313
0.266099
0.117041
0.284368
0.148368
0.244622
0.0314402
0.110444
0.165668
0.1297
0.191919
0.1939
0.138531
0.0880005
0.18379
0.150511
0.103876
0.103284
0.270679
0.106816
0.275691
0.248611
0.166138
0.225474
0.177186
0.104068
0.164178
0.269988
0.0925607
0.168159
0.271157
0.173119
0.12015
0.157402
0.153491
0.172751
0.112935
0.136298
0.124855
0.14264
0.103844
0.135093
0.185275
0.151885
0.00768833
0.194322
0.148267
0.095242
0.201003
0.106773
0.0248774
0.0884331
0.131473
0.153356
0.121473
0.127375
0.0938367
0.175662
0.167173
-0.0589169
0.166664
0.178661
0.0886746
0.103559
0.0948697
0.157036
0.13939
0.269907
0.204952
0.261396
0.136528
0.253008
0.161671
0.161321
0.08721
0.151002
0.283694
0.11161
0.116798
0.177291
0.153949
0.0136757
0.17228
0.040252
0.179514
0.18951
0.183328
0.166198
0.290518
0.0811479
0.153105
0.114663
0.0584598
0.142095
0.14431
0.183867
0.154651
0.224977
0.221442
0.0961291
0.189194
0.0459182
0.059169
0.158326
0.147334
0.0221486
0.280402
0.243871
0.179099
0.0520143
0.0594438
0.0581159
0.279605
0.263901
0.136551
0.124034
0.132673
0.0992608
0.0202344
0.127702
0.262363
0.133261
0.162537
0.17025
0.162802
0.167466
0.142217
0.094699
0.0402939
0.0452257
0.0181827
0.168586
0.182536
0.106728
0.175811
0.176138
0.187324
0.273994
0.273703
0.173062
0.169477
0.011069
0.178634
0.112768
0.217744
0.1854
0.190319
0.130298
0.175718
0.10192
0.173379
0.132967
0.0952943
0.140447
0.130567
0.150475
0.269116
0.0758361
0.175095
0.0621562
0.166229
0.0441434
0.159602
0.191629
0.262452
0.058859
0.27638
0.174572
0.13997
0.145806
0.104968
0.166975
0.159469
0.146783
0.144055
0.0884485
0.178889
0.145945
0.190754
0.0981306
0.235843
0.272777
0.176052
0.188409
0.262209
0.273551
0.229691
0.0464887
0.287398
0.23517
0.0571879
0.136677
0.283809
0.110894
0.0645753
0.184913
0.266563
0.0387812
0.0655596
0.177175
0.267415
0.0308745
0.175602
0.103844
0.200798
0.0581693
0.0531774
0.274195
0.141432
0.245771
0.270313
-0.0154385
0.136709
0.165174
0.179706
0.112852
0.175926
0.173626
0.284463
0.14301
0.0464504
0.0391994
0.107639
0.038235
0.13736
0.0972231
0.126896
0.10719
0.0997453
0.0794357
0.19206
0.193542
0.0246098
0.117525
0.237447
0.161398
0.208829
0.177165
0.17262
0.122801
0.166914
0.161664
0.158358
0.111925
0.175056
0.1456
0.276127
0.247412
0.16881
0.240957
0.161334
0.178471
0.167658
0.0684682
0.180274
0.175078
0.121243
0.260011
0.176566
0.126823
0.00723202
0.296534
0.171604
0.166036
0.157916
0.199403
0.17107
0.127015
0.152199
0.191925
0.192746
0.0915178
0.0554845
0.0789663
0.153857
0.134851
0.186007
0.236498
0.114666
0.175093
0.171206
0.283809
0.1848
0.111152
0.160308
0.255686
0.191248
0.191541
0.17111
0.149995
0.0970793
0.0579004
0.165009
0.1485
0.0151813
0.263697
0.0789727
0.257884
0.156328
0.152461
0.108924
0.0563972
0.189587
0.163672
0.130396
0.272252
0.270824
0.145764
0.23108
0.158858
0.13479
0.175397
0.058358
0.0865385
0.271766
0.053083
0.173252
0.16845
-0.10324
0.165268
0.165629
0.191029
0.193472
0.0792171
0.0617212
0.17779
0.121733
0.175513
0.0975389
0.0557275
0.242697
0.222106
0.0417921
0.265438
0.0451548
0.17544
0.166175
0.226295
0.139401
0.191857
0.193486
0.0724228
0.107123
0.0602391
0.135447
0.0437856
0.0993781
0.182441
0.167919
0.123525
0.267328
0.06325
0.0309311
0.0922127
0.189097
0.115012
0.273894
0.166926
0.0549368
0.281134
0.143028
0.268953
0.165
0.0821852
0.0607761
0.162427
0.0630877
0.167837
0.179523
0.157458
0.0565055
0.137092
0.173853
0.105839
0.177741
0.0869982
0.0601528
0.19314
0.0576926
0.265995
0.164531
0.192084
0.192778
0.0486722
0.0888069
0.0266679
0.154838
0.267954
0.0966286
0.194113
0.163977
0.0886841
0.0790579
0.0681509
0.269372
0.0477461
0.0577338
0.0356937
0.14951
0.242354
0.229018
0.115778
0.116427
0.0746124
0.0715305
0.0952151
0.0966117
0.0513755
0.0535469
0.185691
0.278068
0.273505
0.192876
0.0867639
0.0998903
0.175309
0.0842992
0.171777
0.0604443
0.071317
0.161019
0.0980431
-0.00425653
0.201519
-0.0354463
0.102486
0.080216
0.103323
0.164048
0.280736
0.193023
0.146272
0.104615
0.163211
0.0191143
0.16383
0.269192
0.171539
0.214522
0.0564443
0.105061
0.170184
0.126945
0.152266
0.273564
0.166281
0.124633
0.121614
0.166655
0.195376
0.271583
0.133206
0.0788347
0.197674
0.112396
0.0538084
0.0660301
0.102636
0.0324769
0.118145
0.124706
0.26909
0.166278
0.285209
0.162954
0.0586067
-0.0267924
0.0904533
0.16513
0.0903655
0.273233
0.208363
0.106874
0.117946
0.141428
0.13963
0.0702302
0.140003
0.282526
0.098854
0.0815025
0.0531379
0.0835819
0.119715
0.123198
0.0928178
0.053566
0.149931
0.1705
0.0568139
0.164165
0.0675781
0.0511644
0.0545804
0.0278773
0.181562
0.165195
0.135308
0.167938
0.262004
0.144543
0.241333
0.0874405
0.262155
0.18868
0.132803
0.188321
0.191317
0.193547
0.121731
0.13233
0.119927
0.0798527
0.080083
0.0886594
0.0989245
0.131757
0.17351
0.200462
0.0841737
0.194118
0.273732
-0.0909942
0.177776
0.110562
0.141746
0.168106
0.129475
0.193151
0.279891
0.156284
0.0615698
0.0578517
0.0746099
0.172656
0.175754
0.0967044
0.292435
0.168581
0.241977
0.208836
0.0344086
0.157627
0.0244016
0.123968
0.284465
-0.00870128
0.262887
0.146525
0.182878
0.298718
0.276849
0.170525
0.041537
0.171088
0.180267
0.186531
0.076141
0.0814306
0.0562358
0.130417
0.0900017
0.106978
0.16569
0.081976
0.120805
0.278184
0.161517
0.19428
0.105667
0.281295
0.290823
0.177284
0.274177
0.0665831
0.271231
0.215531
0.0477766
0.0590103
0.169167
0.168472
0.0861654
0.134859
0.157625
0.110245
0.172624
0.133633
0.27128
0.162629
0.158593
0.175091
0.126406
0.00936564
0.174463
0.22371
0.0567341
0.167416
0.145793
0.110531
0.173593
0.0840537
0.07426
0.187867
0.279852
0.19095
0.189524
0.138885
0.137662
0.0993409
0.106664
0.133378
0.179549
0.0860162
0.110503
0.171296
0.192776
0.188735
0.193979
0.0592822
0.0850405
0.136802
0.0605071
0.100496
0.167605
0.172904
0.0913477
0.273268
0.169189
0.095405
0.156931
0.175303
0.0614213
0.166806
0.12152
0.15011
0.0639175
0.275127
0.211758
0.269359
0.274508
0.179481
0.162895
0.173545
0.192231
0.193971
0.11598
0.105593
0.286059
0.273331
0.10292
0.0559604
0.108473
0.0782522
0.177859
0.119574
0.0966883
0.174939
0.0921852
0.256955
0.259557
0.192229
0.165887
0.0344877
0.058798
0.0984619
0.248447
0.110913
0.144876
0.118159
0.167497
0.0461244
0.103122
0.225548
0.272537
0.152776
0.27294
0.0899712
0.154573
0.285739
0.0902551
0.0900922
0.155889
0.275517
0.272712
0.16843
-0.00225287
0.179172
0.268568
0.107885
0.269641
0.12778
0.202746
0.159811
0.175988
0.0882793
0.291855
0.151457
0.115937
0.167179
0.129313
0.153965
0.128962
0.0555714
0.167294
0.190741
0.0582207
0.241537
0.187412
0.188658
0.123058
0.158394
0.267555
0.0396779
0.165844
0.149902
0.174956
0.283436
0.122629
0.178794
0.287364
0.177491
0.150871
0.287713
0.167911
0.167372
0.1178
0.118096
0.179393
0.0674621
0.071291
0.169506
0.0571947
0.145113
0.157243
0.0885906
0.105824
0.0819981
0.160163
0.118848
0.110239
0.0926501
0.191909
0.172297
0.0699806
0.0886365
0.161606
0.0896603
0.0980854
0.263711
0.115903
0.257222
0.146142
0.107893
0.0799111
0.147766
0.0600162
0.290277
0.148601
0.104727
0.170658
0.211024
0.176533
0.0812066
0.0094904
0.0998134
0.168628
0.0888183
0.13405
0.130248
0.0985161
0.0955505
0.0366638
0.1757
0.140722
0.17596
0.103518
0.149103
0.135014
0.26579
0.177968
0.282469
0.260746
0.18988
0.192887
0.170191
0.167345
0.0791203
0.0504311
0.188885
0.194076
0.192173
0.168736
0.135264
0.162695
0.0262286
0.174281
0.183874
0.14051
0.0426409
0.16973
0.174564
0.271854
-0.00314181
0.185647
0.175514
0.295696
0.0713795
0.0484565
0.310122
0.0560717
0.140119
0.141123
0.0511624
0.0574904
0.174935
0.0400517
0.274781
0.0715485
0.196367
0.168127
0.192874
0.262294
0.0193124
0.145252
0.181081
0.0366545
0.134913
0.134001
0.0994637
0.0995074
0.0520802
0.0897523
0.281945
0.117575
0.130354
0.104763
0.0327054
0.27232
0.152494
0.168625
0.120341
0.287746
0.0657903
0.176291
0.167118
0.245711
0.157113
0.281863
0.162565
0.166114
0.192667
0.0764269
0.0364421
0.168924
0.155164
0.279643
0.273565
0.14298
0.0649046
0.158266
0.184281
0.166088
0.188192
0.147023
0.0435026
0.1013
0.140895
0.135418
0.115703
0.26869
0.141661
0.275037
0.124244
0.100653
0.175107
0.153087
0.148488
0.0567024
0.0622447
0.0631685
0.098161
0.211179
0.178173
0.0761861
0.237369
0.182096
0.206948
0.0693434
0.0595254
0.218653
0.211324
0.225773
0.163848
0.274164
0.166661
0.0455878
0.158176
0.151869
0.223549
0.145336
0.0359457
0.18062
0.27036
0.0609878
0.0568367
0.0412626
0.152345
0.174351
0.168089
0.125478
0.18633
0.184978
0.159082
0.0918351
0.17874
0.156841
0.0241519
0.102235
0.100872
0.060243
0.0470724
0.0971631
0.148942
0.161246
0.226991
0.0848173
0.275652
0.0666933
0.167069
0.0361241
0.0294078
0.0565433
0.169569
0.149092
0.278997
0.171061
0.0960284
0.231597
0.061371
0.177689
0.266102
0.153144
0.128535
0.102484
0.126189
0.190964
0.185997
0.168376
0.198095
0.286239
0.0904676
0.178227
0.156686
0.166049
0.26597
0.269402
0.0802065
0.090222
0.19272
0.105554
0.292604
0.139038
0.122781
0.126212
0.0871475
0.0946184
0.0938616
0.265111
0.174758
0.106885
0.108177
0.064301
0.0618382
0.1714
0.263068
0.10154
0.27296
0.167395
0.155176
0.0998829
0.103868
0.25949
0.171191
0.184684
0.181328
0.150916
0.274672
0.101947
0.0367153
0.229946
0.186081
0.0875323
0.174493
0.175117
-0.0181255
0.183466
0.281796
0.166228
0.13698
0.171928
0.165522
0.26623
0.19335
0.253766
0.270191
0.122706
0.192498
0.194087
0.115108
0.167516
0.152382
0.0761817
0.287823
0.0847856
0.165849
0.0540707
0.124402
0.0610008
0.275135
0.17563
0.260115
0.134508
0.163188
0.175267
0.182727
0.189163
0.273314
0.264781
0.032494
0.170105
0.256485
0.0577552
0.0900317
0.0979226
0.165833
0.168368
0.206153
0.0937136
0.0570868
0.288734
0.0443728
0.160177
0.0619563
0.157664
0.264141
0.16914
0.191895
0.174348
0.288554
0.159637
0.0682121
0.174121
0.108537
0.0506297
0.0413045
-0.0341891
0.0633253
0.222487
0.175357
0.271198
0.175145
0.0929951
0.0810573
0.0938843
0.175057
0.151157
0.223272
0.0346225
0.0365651
-0.00124602
0.177337
0.173865
0.258254
0.149012
0.276318
0.135189
0.184903
0.182059
0.182568
0.190388
0.166624
0.273872
0.131848
0.149004
0.136462
0.288132
0.0898455
0.193204
0.120086
0.121584
0.0784195
0.0796952
0.0226359
0.0387651
0.186845
0.104438
0.236108
0.158346
0.0974285
0.261667
0.132098
0.0611841
0.142865
0.101987
0.178975
0.074111
0.181101
0.149919
0.165855
0.100717
0.161474
0.182306
0.146453
0.172979
0.136133
0.109212
0.286028
0.0904761
0.101854
0.133444
0.134526
0.0550052
0.174637
0.0233139
0.182624
0.150578
0.0393103
0.143533
0.140441
0.180104
0.0497681
0.179413
0.0391457
0.0096798
0.271412
0.108476
0.20715
0.0413474
0.238312
0.164798
0.178316
0.118083
0.118901
0.0741477
0.0779693
0.0973169
0.0961344
0.131814
0.133318
0.16303
0.134142
0.167542
0.149109
0.0570681
0.279323
0.133382
0.0919154
0.0571901
0.15756
0.179011
0.174674
0.0594089
0.0689557
0.17738
0.0759394
0.124521
0.0745718
0.288334
0.0962406
0.0742664
0.178925
0.145235
0.0563855
0.187576
0.139448
0.106678
0.137265
0.00874225
0.140481
0.0579586
0.175349
0.186044
0.106366
0.0747714
0.130455
0.114456
0.0750541
0.0721602
0.117625
0.106036
0.117683
0.100174
0.101603
0.165269
0.176832
0.177535
0.26402
0.225661
0.275558
0.151804
0.276382
0.12232
0.140261
0.167701
0.151681
0.142944
0.165891
0.125858
0.0872413
0.0909428
0.086145
0.122941
0.0790919
0.148901
0.243685
0.115057
0.168012
0.0845282
0.180239
0.195307
0.141946
0.254827
0.106137
0.200674
0.257096
0.123114
0.0841774
0.0855389
0.0917769
0.0984976
0.132067
0.176002
0.169831
0.120232
0.132291
0.124952
0.160201
0.201833
0.275879
0.166472
0.161263
0.105528
0.191687
0.0564884
0.168479
0.172838
0.139335
0.0982528
0.198428
0.0643741
0.186359
0.175695
0.22383
0.244145
0.164919
0.174693
0.174863
0.163879
0.0657784
0.181819
0.0677184
0.11537
0.114848
0.196291
0.180714
0.256737
0.148272
0.280579
0.259971
0.273004
0.0540573
0.296903
0.185622
0.165135
0.134657
0.277337
0.120851
0.171232
0.213816
0.207613
0.110442
0.290963
0.208504
0.122085
0.0494936
0.0707221
0.251055
0.277603
0.185154
0.0600333
0.1965
0.180337
0.107368
-0.0015684
0.0998392
0.127994
0.134967
0.104681
0.136786
0.18903
0.198092
0.221755
0.0951948
0.105648
0.112005
0.130787
0.168842
0.164941
0.0537316
0.225329
0.198239
0.0588455
0.127982
0.294529
0.0723221
0.120441
0.0798503
0.105862
0.0894992
0.264051
0.164712
0.0386919
0.174366
0.178475
0.120378
0.120689
0.0764682
0.0790668
0.038536
0.0628467
0.0985181
0.271244
0.129396
0.0646329
0.192542
0.292666
0.0948548
0.145065
0.286776
0.241055
0.180423
0.229382
0.273926
0.173185
0.276796
0.0864605
0.166861
0.00339738
0.181611
0.0368686
0.272817
0.134904
0.147252
0.10039
0.297262
0.268722
0.0520296
0.018876
0.0550158
0.270092
0.0660553
0.15698
0.0461293
0.179938
0.254831
0.176476
0.272816
0.178345
0.171347
0.170476
0.19348
0.193337
0.166159
0.260015
0.139121
0.24724
0.0675082
0.274238
0.270024
0.278074
0.0548877
0.242879
0.145877
0.250608
0.0536771
0.187414
0.189843
0.0908996
0.065775
0.285793
0.194241
0.264606
0.258285
0.0504315
0.172673
0.0633005
0.104588
0.163451
0.265659
0.273085
0.0942134
0.14948
0.106439
0.270779
0.093201
0.178217
0.136283
0.17682
0.159375
0.0820096
0.0650431
0.144257
0.148339
0.176588
0.0551296
0.0258322
0.174703
0.129351
0.0610012
0.0943067
0.190981
0.155027
0.0640873
0.0867732
0.0594698
0.169521
0.0698398
0.0666545
0.109957
0.110837
0.227777
0.0894929
0.0920943
0.100144
0.194603
0.114594
0.148018
0.236976
-0.00488426
0.18316
0.14135
0.091396
0.0894303
0.127129
0.179914
0.253502
0.174775
0.189887
0.169646
0.289496
0.111849
0.185923
0.111951
0.191114
0.184676
0.155255
0.183678
0.273998
0.0587297
0.272617
0.0733109
0.0448915
0.0623737
0.164797
0.0765746
0.108911
0.0558555
0.252292
0.16311
0.154041
0.177129
0.224345
0.152692
0.178182
0.194113
0.204957
0.0624561
0.134226
0.0533104
0.0481957
0.105452
0.192034
0.0287315
0.0545775
0.0747379
0.209464
0.12064
0.0573098
0.0571605
0.0488044
0.0126877
0.239512
0.156025
0.131499
0.277567
0.205523
0.0507929
0.146565
0.142473
0.120899
0.158441
0.115185
0.0436489
0.100448
0.198124
0.114079
0.179605
0.0821762
0.0442096
0.140703
0.0458517
0.190428
0.0822471
0.163933
0.144601
0.154688
0.176701
0.16849
0.283109
0.191526
0.167464
0.0560627
0.076505
0.176077
0.277718
0.11988
0.102164
0.181179
0.181399
0.0568711
0.191097
0.190963
0.169925
0.185748
0.122073
0.108086
0.268083
0.165824
0.163156
0.0601984
0.173751
0.15787
0.0780457
0.08311
0.117553
0.0689321
0.0842911
0.121464
0.251953
0.0559623
0.100302
0.204295
0.0558123
0.0965386
0.137792
0.178282
0.108665
0.178395
0.271903
0.0430796
0.0901582
0.172057
0.147065
0.190062
0.177587
0.172157
0.0245245
0.098448
0.055719
0.167688
0.16299
0.231957
0.269507
0.0595599
0.192073
0.191646
0.102544
0.169319
0.187719
0.164829
0.174952
0.192855
0.0530571
0.291602
0.294451
0.166705
0.199228
0.268564
0.0141255
0.282161
0.168172
0.229097
0.172332
0.0900565
0.0972558
0.100241
0.0986264
0.0472982
0.0866487
0.15985
0.145883
0.0731078
0.208214
0.228981
0.10363
0.194552
0.127188
0.153051
0.149582
0.0386369
0.0997784
0.177202
0.17945
0.0240093
0.19277
0.0907162
0.276612
0.175513
0.228383
0.18026
0.172587
0.269614
0.144696
0.10627
-0.0322175
0.106861
0.162737
0.175418
0.088717
0.273508
0.00147277
0.164616
0.164607
0.288614
0.156138
0.175652
0.179605
0.105901
0.128624
0.134214
0.135062
0.295232
0.0467274
0.189806
0.101109
0.119486
0.0912459
0.127879
0.0895952
0.124559
0.18953
0.20021
0.16717
0.228085
0.194072
0.178176
0.0709378
0.144898
0.189432
0.178821
0.170163
0.187492
0.203588
0.178166
0.175123
0.203546
0.128143
0.059608
0.15552
0.197147
0.136411
0.0879049
0.273443
0.175285
0.175103
0.170163
0.0695393
0.273982
0.172047
0.149395
0.272415
0.113963
0.179171
0.149548
0.114933
-0.07562
0.0529173
-0.0300593
0.054356
0.13939
0.163475
0.112076
0.105947
0.103406
0.195777
0.0778688
0.0895227
0.166726
0.28457
0.13905
0.0674637
0.005194
0.134536
0.196116
0.181011
0.0449978
0.16566
0.278364
0.174783
0.174329
0.139884
0.0898945
0.281917
0.246042
0.193898
0.200388
0.158363
0.180655
0.177743
0.250037
0.0921424
0.167178
0.0480944
0.0945589
0.0294736
0.101384
0.190727
0.144084
0.0680331
0.0700258
0.0338382
0.0834697
0.273726
0.0616365
0.0142162
0.18793
0.171701
0.274769
0.0871075
0.187193
0.175724
0.165413
0.249972
0.171204
0.0547627
0.0903189
0.273881
0.0658329
0.143785
0.179253
0.147207
0.0684506
0.099573
0.123433
0.240165
0.10214
0.148458
0.186343
0.171045
0.184637
0.20075
0.160253
0.271245
0.267462
0.165792
0.16531
0.0946923
0.280855
0.181308
0.0569544
0.0606576
0.107896
0.281086
0.160522
0.126105
0.172103
0.124771
0.174912
0.184452
0.12166
0.288881
0.171726
0.186099
0.0566598
0.100426
0.0164693
0.182219
0.0203572
0.239437
0.182955
0.168893
0.127524
0.160532
0.0787903
0.0891342
0.159089
0.164806
0.0954832
0.0614439
0.0892589
0.152722
0.0124503
0.0566132
0.0735602
0.170021
0.141408
0.168093
0.107757
0.177131
0.17721
0.184716
0.190533
0.168671
0.176882
0.173751
0.1041
0.0522295
0.132018
0.284195
0.177189
0.0572558
0.189276
0.164113
0.0704768