/*--------------------------------*- C++ -*----------------------------------*\
| =========                 |                                                 |
| \\      /  F ield         | OpenFOAM Extend Project: Open source CFD        |
|  \\    /   O peration     | Version:  1.6-ext                               |
|   \\  /    A nd           | Web:      www.extend-project.de                 |
|    \\/     M anipulation  |                                                 |
\*---------------------------------------------------------------------------*/
FoamFile
{
    version     2.0;
    format      ascii;
    class       surfaceScalarField;
    location    "2000";
    object      phi;
}
// * * * * * * * * * * * * * * * * * * * * * * * * * * * * * * * * * * * * * //

dimensions      [0 3 -1 0 0 0 0];

internalField   nonuniform List<scalar> 
48217
(
7.81247e-05
1.94362e-05
-0.000391362
0.000293801
-0.000137989
4.97152e-05
-4.69197e-05
0.000135193
5.6534e-05
-6.36729e-05
0.000497594
-0.000490455
6.41438e-05
-6.99772e-05
-5.55766e-05
6.141e-05
-3.2192e-06
3.16108e-06
5.16153e-06
-5.10341e-06
-2.4344e-05
6.25102e-05
-6.92001e-05
3.1034e-05
-0.000179439
2.18136e-06
0.000216263
-3.90049e-05
-0.000192485
-0.00019847
0.000284871
0.000106084
-1.03031e-05
1.17097e-05
-3.37235e-05
3.23168e-05
9.99769e-05
-0.00012993
0.00014015
-0.000110197
0.0005764
-0.000113296
-0.000463104
-0.000316147
0.000225702
-0.000161677
0.000252123
-0.000101001
-6.89825e-05
0.000130881
3.91033e-05
8.87567e-06
0.000170108
-0.000542868
0.000363884
-9.57506e-05
6.78627e-05
5.42742e-05
-2.63863e-05
9.00988e-05
-1.96091e-05
-1.89987e-05
-5.14911e-05
0.000243016
-0.000152467
0.000203125
-0.000293674
-5.38766e-05
-8.89353e-05
5.13022e-05
9.15097e-05
6.96702e-05
-1.17585e-05
0.000131667
-0.000189579
-0.000506467
0.000464947
-1.64005e-05
5.79205e-05
9.18378e-05
-6.75738e-05
-6.54689e-06
-1.77171e-05
0.000103617
-0.000368037
-5.04407e-05
0.00031486
-4.35048e-05
-3.12187e-05
5.0119e-05
2.46045e-05
7.80408e-05
1.31971e-06
-7.85685e-05
-7.92039e-07
-0.000179239
0.000167483
2.18481e-06
9.57037e-06
-0.000162669
0.00016982
0.000209574
-0.000216724
-0.000148505
0.000153326
0.000187738
-0.000192558
-3.72772e-05
3.54406e-05
6.36037e-05
-6.17671e-05
-8.72088e-05
8.75226e-05
-2.46574e-05
2.17636e-05
-2.15686e-05
-8.23327e-05
8.21378e-05
1.08476e-05
-9.5139e-05
-7.03492e-06
9.13264e-05
0.000147373
-0.000483876
-9.78282e-05
0.000434331
6.01279e-05
7.202e-05
-8.4338e-05
-4.781e-05
0.000168108
-0.000145749
1.36489e-05
-3.60088e-05
0.000139534
-0.000118366
1.91143e-06
-2.30793e-05
0.000167196
-0.000327141
-0.00026199
0.000421935
0.000556952
-0.000306999
-0.000548105
0.000298152
1.37565e-05
-7.42252e-05
2.54755e-07
6.02139e-05
1.48892e-05
-8.2803e-05
-5.36904e-07
6.84508e-05
-0.000129957
-1.41177e-05
5.32176e-05
9.08574e-05
6.60729e-05
-4.88752e-05
6.50301e-05
-8.22278e-05
-0.000101663
0.000145922
9.28293e-05
-0.000137088
0.000142678
-6.0708e-05
-0.000127322
4.53514e-05
-6.55732e-05
0.000105814
7.80348e-05
-0.000118276
0.000157761
-1.19598e-05
-0.000172875
2.7074e-05
0.000801868
-0.000200352
-0.000601516
3.29736e-05
4.78867e-05
-0.000356409
0.000275548
-0.00030366
0.000150969
0.000982801
-0.00083011
8.39591e-05
0.000160429
-8.3953e-05
-0.000160435
-1.18665e-05
2.05596e-05
-2.00336e-05
1.13405e-05
-0.00023496
-4.44457e-05
0.000222081
5.73246e-05
2.74682e-05
-8.26587e-05
8.9358e-05
-3.41675e-05
6.1589e-05
0.0003148
-0.000205457
-0.000170932
-0.000222796
-0.000188798
0.000197209
0.000214384
-0.000234931
-0.000199874
0.000203058
0.000231746
-0.000460833
0.000315137
0.000614441
-0.000468744
-4.06245e-05
7.11435e-05
-3.11808e-05
6.61742e-07
4.26603e-05
-2.96688e-05
4.56812e-05
-5.86727e-05
-0.000121555
0.000186542
0.000952856
-0.00101784
-0.000294332
0.000220478
-0.00015761
0.000231465
0.000176809
-0.000444416
-0.000137982
0.000405589
4.51708e-05
-5.88621e-05
1.31209e-05
5.70381e-07
-2.9224e-05
2.55986e-06
9.86787e-05
-7.20145e-05
-2.59688e-06
3.73494e-07
-4.44865e-05
4.67099e-05
2.37364e-07
-9.5596e-05
-0.000411108
0.000149611
-0.000149443
-1.67741e-07
-0.000559587
0.000452893
0.000475042
-0.000368348
-9.87132e-06
4.25382e-05
-9.87749e-05
6.61081e-05
-0.000158991
-3.31633e-05
0.000192154
-0.000133915
0.000143608
-0.000147235
0.000137542
8.00682e-05
-0.000113894
0.000154982
-0.000121156
-0.000136589
0.000153786
-1.71969e-05
0.000206841
-1.90021e-05
3.13181e-05
-0.000219157
3.8833e-05
-0.000137381
3.47403e-05
6.38078e-05
0.000208207
2.58601e-05
-3.93235e-06
-0.000230134
0.000690309
-0.000102021
-0.000738486
0.000150199
-0.000215473
0.000295797
0.000204055
-0.00028438
-1.81401e-06
1.90337e-05
0.000120415
-0.000137634
2.66904e-05
-1.38799e-05
0.000104555
-0.000117365
6.46717e-05
3.92776e-05
-2.6268e-05
-7.76813e-05
4.39687e-05
-6.73518e-05
2.33831e-05
0.000160983
0.000233701
-0.000188609
-0.000206075
2.53845e-05
-6.32175e-05
1.31401e-05
2.4693e-05
0.00041501
-8.49707e-05
-0.00042708
9.70409e-05
6.98383e-05
-3.66744e-05
0.000293742
-0.000326905
-0.000794827
-0.000568818
0.000622211
0.000741434
0.000266995
-0.000282884
-0.000153351
0.00016924
-0.000286119
-6.52042e-05
7.42808e-05
0.000277042
-8.66259e-05
3.32508e-05
-0.000524666
0.000578041
-0.000145564
-4.67727e-05
0.000104939
8.7398e-05
0.000241406
-3.02079e-06
-1.05777e-05
-0.000227808
6.85302e-05
-2.48684e-05
-0.000137519
9.38576e-05
-4.67169e-06
-4.92942e-05
3.76169e-05
1.63489e-05
-7.6161e-05
0.000121719
-0.000131695
8.61373e-05
-0.000578822
-0.00024752
0.000150047
0.000676294
-1.08131e-05
0.000202988
-0.000206534
1.43596e-05
9.34287e-06
-2.56472e-06
1.96973e-06
-8.74788e-06
-4.81242e-05
4.47805e-05
7.04202e-05
-6.70765e-05
-0.000147152
-9.25337e-05
0.000117413
0.000122273
2.37455e-05
0.000291537
-0.000282309
-1.15952e-05
-4.04069e-05
2.44254e-05
2.75767e-05
1.86473e-05
4.79676e-06
-1.30515e-05
-1.03925e-05
0.000141137
-0.000120919
-0.000250659
0.000230441
-0.000244507
-0.000126147
0.000241891
0.000128763
2.50319e-05
9.92394e-05
-0.000124271
-0.000347737
-6.74861e-05
0.000415224
-0.000281682
-6.84446e-05
0.000350127
6.1867e-05
0.000253901
-0.000116999
-0.000198768
8.56775e-05
0.000252866
-0.000151427
-0.000187117
-0.000411791
-2.50377e-05
0.000141093
0.000295736
-4.75325e-05
0.000121325
0.000141117
-0.00021491
-4.64766e-05
-0.000142962
0.000177819
1.16196e-05
8.33735e-05
0.00013007
-0.000111163
-0.000102281
-6.36322e-05
-0.000136805
4.76578e-05
0.000152779
-7.40448e-05
3.20336e-05
1.47585e-05
2.72527e-05
-0.000161505
0.000202673
-4.11681e-05
0.000108501
-0.000132928
-9.56838e-05
0.000120111
-0.000631638
9.34467e-05
0.00062014
-8.19493e-05
0.000359714
-0.000381044
0.000460355
-0.000439025
-0.000344186
0.000255828
-8.85637e-05
0.000176921
0.000423439
-0.000157907
-0.00033306
6.75279e-05
-5.98563e-05
4.80808e-05
2.20801e-05
-1.03046e-05
0.000125416
-2.81103e-05
-0.000114951
1.7646e-05
7.13244e-05
-3.63225e-05
-4.89394e-05
1.39375e-05
2.13911e-05
-3.58137e-05
-6.86364e-06
2.12862e-05
7.49013e-05
-4.08271e-05
-5.30756e-05
1.90015e-05
-0.000143469
3.5098e-05
-0.000109725
0.000218095
-0.000441128
-0.000430576
0.000582555
0.000289149
-0.00017019
0.000181959
-1.17694e-05
5.22492e-05
5.60426e-05
-2.24407e-05
-8.58512e-05
5.97167e-05
7.47738e-05
-3.30117e-05
-0.000101479
4.60198e-05
5.60547e-05
-2.10672e-05
-8.10072e-05
6.62292e-05
0.000115022
-7.11434e-05
-0.000110108
-0.000416751
0.000578434
0.000111804
-0.000273487
-0.000229085
0.000314706
-0.000279684
0.000194062
-0.000252621
-0.000206626
0.000343116
0.000116132
0.000828956
0.000125092
-0.000132735
-0.000821313
-0.000290976
0.000152942
0.000441544
-0.00030351
-0.000240868
2.64458e-05
0.000235128
-2.07061e-05
-7.48557e-05
9.09791e-05
0.000124875
-0.000140998
-0.000370121
0.000304869
-0.000278933
-0.000251059
0.000348923
-0.000270139
0.000172275
0.000602865
-0.000394898
0.000165631
-0.000373599
0.000140793
6.84564e-06
-0.000138999
-8.63979e-06
5.54356e-05
8.00973e-05
-0.000562256
0.000426723
-0.000494776
-0.000206812
0.000531665
0.000169922
-0.000726904
-0.000420527
0.000398006
0.000749424
-5.87618e-05
7.2508e-05
0.000116347
-0.000130093
-3.96891e-05
7.19115e-05
-4.01167e-05
7.89434e-06
0.000234548
4.70342e-05
3.73667e-05
-0.000318948
0.000235162
2.78002e-05
-0.000310494
-0.000977468
0.000690505
0.000768501
-0.000481538
9.52051e-05
-0.000105631
3.87651e-05
-2.83391e-05
-7.82402e-05
-0.000571637
0.000103294
0.000546583
-0.000160779
0.000103409
-2.24426e-05
7.98125e-05
-0.000161218
0.00022976
9.58934e-05
-0.000164436
7.05062e-05
-5.37426e-05
2.04136e-05
-3.71772e-05
0.000833469
-0.00042293
0.000746485
-0.00115702
6.12158e-05
-6.96728e-05
-3.70872e-05
4.55443e-05
9.48515e-05
-6.18967e-05
-3.50171e-05
2.06226e-06
8.56697e-05
0.000673592
-0.000156396
-0.000143998
-6.23944e-05
6.38201e-05
0.000142572
-0.000168687
-0.000689059
0.000857746
-0.000166315
-0.000664628
0.000531096
0.000299848
0.000188671
-9.75837e-05
-0.000300161
0.000209073
0.000168975
-0.000143434
-0.000106794
8.12526e-05
-0.000591853
0.000788737
0.00029001
-0.000486894
0.00027134
-1.99999e-07
-0.000192788
-7.83517e-05
7.28842e-05
-1.45129e-05
-7.7183e-05
1.88117e-05
-9.4783e-05
0.000305403
-0.000376005
0.000165384
3.35137e-05
-0.00010259
-5.61285e-05
0.000125205
-7.68639e-05
9.68622e-05
-0.000118438
9.84396e-05
-0.000342812
-0.000364908
0.000167222
0.000540498
9.28302e-05
0.000226606
-8.66521e-06
-0.000310771
0.000170116
0.000322276
-0.000257973
-0.000234419
6.14342e-05
-6.70641e-05
-4.70733e-05
5.27032e-05
-6.53592e-05
9.58303e-05
0.000186141
-0.000216612
5.49739e-05
-0.000150442
-0.000302082
0.00039755
-5.1795e-05
0.000116863
0.000114108
-0.000179176
-0.000112371
0.000131282
0.000146063
-0.000164974
-0.000604998
0.000889734
0.000596227
-0.000880963
0.000882248
-0.000997453
-0.000742117
0.000857321
0.000128612
-0.000196394
-0.000149636
0.000217417
1.42275e-05
-3.10098e-05
1.67823e-05
-6.85373e-05
1.018e-05
-2.64163e-05
8.47736e-05
-2.3967e-05
-0.000358576
-2.92482e-05
0.000417095
-0.000573486
-3.33401e-05
0.000189732
0.000121146
3.81388e-05
-0.000122775
-3.65092e-05
0.000176634
9.61532e-05
-4.08575e-05
-0.00023193
0.000102322
-9.0127e-05
-0.00016594
0.000153745
9.5767e-05
-8.82863e-05
-0.000182541
0.000175061
3.64925e-05
-6.28075e-05
-5.3134e-05
7.94491e-05
1.49362e-05
-2.40395e-05
8.3971e-06
7.06178e-07
-2.84949e-06
-0.000262367
-5.56962e-06
0.000270786
-0.000186606
0.000232481
-0.000233425
0.000187551
-5.11766e-05
2.145e-05
-5.68315e-05
8.6558e-05
-8.35822e-06
-0.000121079
0.000129437
-0.000106923
-1.83705e-05
-8.05558e-05
0.000205849
-0.000481452
-0.000251153
0.000480819
0.000251786
-0.000589069
3.99601e-05
0.000619704
-7.05951e-05
-1.73355e-05
9.71881e-05
-7.98526e-05
0.000127547
-0.000198346
-0.000202142
0.00027294
-0.000869171
0.000691772
0.0001774
-0.000127619
4.26067e-05
-2.10975e-05
0.00010611
-0.000146623
0.000120639
0.000109823
-8.38399e-05
0.000991599
-2.82649e-05
-0.000963334
8.70328e-05
4.28937e-05
-3.78477e-05
-9.20788e-05
-1.64583e-05
-0.000101079
0.000117537
-0.000227156
3.06115e-05
0.000224393
-2.78485e-05
4.79407e-05
-6.00583e-05
-0.000116182
0.0001283
0.000517576
-0.000673788
0.000532368
-0.000376157
-0.00025299
1.30927e-06
8.31918e-05
-5.41274e-05
-2.90644e-05
0.000125664
-4.39039e-05
2.12281e-05
-0.000102988
-9.50538e-05
1.73778e-05
7.2178e-05
5.49793e-06
0.000491185
-0.000550211
-0.000245576
0.000304602
-0.000332898
-0.000228395
0.000272322
0.000288971
-2.85723e-05
1.98084e-05
0.000192779
-0.000184015
-0.000188149
2.9005e-06
0.000128799
5.64491e-05
7.79611e-05
5.34099e-05
-3.33637e-05
-9.80074e-05
-3.17583e-05
3.73508e-05
0.000166793
-0.000172385
-2.84973e-05
3.43092e-05
5.41072e-05
-5.99191e-05
-6.23582e-05
-0.000159908
0.000107794
0.000114472
-0.000244919
-1.08091e-05
0.000112292
-4.92879e-05
2.64385e-05
-8.94426e-05
1.06909e-06
-0.000144389
0.00011806
2.52603e-05
-4.31859e-05
9.7921e-05
-0.00016154
0.000106805
-0.000164126
-3.07059e-05
3.6199e-05
0.000158633
2.25006e-05
-3.55885e-05
-9.74294e-05
0.000110517
0.000111936
8.69349e-05
-8.98258e-05
-0.000109045
0.000115249
-0.000124774
-2.28142e-06
1.1806e-05
5.15186e-05
-0.000171685
-0.000127587
0.000247753
-6.65987e-05
1.25926e-05
2.20177e-05
3.19884e-05
0.000507755
-0.000473642
-4.18517e-05
7.73863e-06
-4.2197e-05
5.39563e-06
2.1217e-05
1.55844e-05
-6.72558e-05
-6.45026e-05
8.2143e-05
4.96154e-05
-1.55073e-05
7.6109e-05
-1.31775e-05
-4.74241e-05
7.48577e-05
6.03526e-05
-6.56888e-05
-6.95214e-05
-9.94301e-05
9.13705e-05
-7.87545e-06
1.5935e-05
-0.000168205
-0.000331202
0.000426767
7.26397e-05
-6.06414e-05
-0.000153443
0.000133011
8.10736e-05
4.21094e-05
-6.54238e-06
-2.98529e-05
-5.7142e-06
8.98557e-05
-9.23066e-05
3.32028e-05
-3.07519e-05
-4.67454e-05
5.69376e-05
1.15714e-05
-0.000197675
4.47717e-05
-3.52246e-05
0.000188128
1.54707e-05
-0.000174461
-2.13083e-05
0.000385976
-0.00031035
-5.43181e-05
-0.000129734
0.000836046
0.000122644
-8.12784e-05
7.12678e-05
-5.73451e-05
6.73558e-05
-0.000208899
-0.000528075
0.000693019
4.3955e-05
-0.000114549
-8.72321e-05
0.000108721
9.30604e-05
5.8128e-05
-1.42324e-05
-6.00104e-05
1.61148e-05
9.93991e-05
-3.64308e-05
-8.74202e-05
2.44519e-05
0.00012137
-4.59918e-05
-9.91462e-05
2.37683e-05
-6.90792e-05
2.27207e-05
5.84176e-05
-1.20591e-05
-8.06996e-05
3.06992e-05
6.67675e-05
-1.67672e-05
-0.000129696
4.84009e-05
0.000104945
-2.36496e-05
3.49412e-05
0.000119358
-8.54785e-05
-6.88209e-05
-0.000132766
-4.06951e-05
5.21275e-05
0.000121334
-0.000258534
0.000340707
-0.000255191
0.000173018
8.73678e-05
-8.61901e-05
-1.17776e-06
6.54913e-06
3.29934e-06
1.12298e-05
-2.10783e-05
2.96695e-05
-8.48499e-06
4.61662e-05
-6.73507e-05
-0.000155361
0.000213901
0.000220195
-0.000278735
6.0289e-06
1.12725e-05
-2.76048e-05
0.000425333
-0.000781532
0.000356199
-0.000146733
0.00107008
-0.00098838
6.50355e-05
-3.10186e-05
6.18785e-05
7.38976e-06
-3.82497e-05
-6.76299e-05
0.000204506
5.79372e-05
-0.000194813
0.000880243
-0.000883627
0.000128476
-0.00037534
-8.86594e-05
0.000159576
0.000304423
0.000168956
5.11219e-05
-0.000264151
4.40737e-05
0.000205374
0.000721272
-0.000926646
1.04862e-06
6.27823e-06
-7.75887e-05
7.02618e-05
-2.72136e-06
-6.18588e-05
6.45802e-05
3.97549e-05
-6.93242e-05
-2.8847e-05
5.84164e-05
-4.08912e-05
3.58535e-05
3.65724e-07
-4.05944e-05
-0.000167909
8.4508e-06
0.000200053
-0.000169891
0.000166082
0.000115991
-0.000112182
0.000348835
-0.000243556
0.000283129
-0.000388409
0.000346673
-0.000256698
0.000270421
-0.000360396
0.000114972
0.000439906
-0.000185292
-0.000369586
-1.36656e-05
1.02149e-05
6.8708e-05
-6.52573e-05
0.000889805
-0.00101167
0.000121863
-0.000131337
-0.000254914
5.15768e-06
0.000381094
-0.00107003
-0.000365031
0.00143506
0.000127105
-0.000121577
-5.52818e-06
-0.000166449
0.00017675
-1.03013e-05
-0.000826165
0.0007529
-5.94701e-05
0.000113555
8.50658e-05
-0.000141537
-5.70841e-05
7.99511e-05
-1.00921e-05
-7.82172e-05
0.000396403
-1.90775e-05
0.000169869
-0.000547195
0.000684047
0.000350193
-0.000335173
-0.000699067
0.000335863
0.000669143
-0.000320958
2.07651e-05
-0.000165083
-0.000106373
-6.60547e-05
8.91903e-05
8.32377e-05
6.59154e-05
-9.57752e-05
-7.68853e-05
0.000106745
0.000729529
0.000376601
-0.000755938
-0.000194233
0.000164136
3.00969e-05
0.000192685
0.000531073
-0.000848169
-0.000243945
0.000561041
0.00029183
-0.000626593
0.000616067
-0.000281303
-0.000667349
0.000264744
-0.000409458
0.000812064
1.21566e-05
9.11051e-06
-1.61897e-05
-5.07745e-06
-2.80535e-06
4.73427e-06
1.4455e-05
-1.6384e-05
0.000131175
-0.000249015
-0.000119344
0.000237183
7.48164e-06
9.09972e-05
-0.000144147
4.56685e-05
0.000342774
6.02925e-05
-0.000403066
-6.76266e-05
-5.39002e-05
0.000121527
-0.000629113
0.000470669
0.000107313
5.11302e-05
0.000172604
3.21118e-05
-0.000204716
0.000515271
-0.00029344
-0.000393917
0.000172086
-6.6664e-05
-2.60505e-05
5.89561e-05
3.37585e-05
0.000119438
-0.000219997
-0.000107773
0.000208333
-0.000102958
-0.00013679
0.000180014
5.97343e-05
-0.00010156
6.17548e-05
0.000103592
-6.37866e-05
4.58539e-05
0.000480607
-8.40144e-05
-0.000442446
3.51816e-05
-8.17491e-05
-6.10286e-05
0.000107596
0.000112683
0.000142478
-0.000148868
-0.000106293
-0.000101087
0.000183385
7.01293e-05
-0.000152426
2.87372e-05
-1.51355e-05
-0.000258521
-0.000242811
0.000246494
-0.000360357
0.000356675
0.000240756
-0.000113979
-0.00056526
0.000438483
-6.36326e-05
-0.000112353
0.000175986
-7.35319e-05
-4.63337e-05
6.68757e-05
5.29899e-05
6.2225e-05
-2.1369e-05
-5.20212e-05
1.11653e-05
-0.000189051
0.000122002
0.000310109
-0.00024306
-0.000659431
0.000317755
-0.00021791
-0.000201583
5.76616e-07
-5.52818e-06
-0.000357061
0.000225901
-0.000305364
0.000436524
2.30715e-05
-1.75021e-05
0.000101836
-0.000107406
4.23105e-05
-1.29947e-05
-2.93158e-05
0.000361745
0.000703647
-0.00024943
-2.96069e-05
0.000257729
5.57788e-05
-5.76912e-05
0.000130251
-0.000128339
-0.000224357
6.9661e-05
0.000204926
-5.02306e-05
-0.000129917
0.000112565
-3.93926e-05
5.67447e-05
-0.000335236
0.000238068
-0.000131735
0.000228902
-2.95315e-05
0.000255818
4.44151e-05
-0.000270701
-9.09093e-05
-0.000364401
0.000269455
0.000185856
-4.32842e-05
4.62906e-05
-3.46124e-05
3.1606e-05
3.03293e-05
-2.4167e-05
-0.00028951
0.000283348
2.09717e-05
-5.48821e-05
4.54376e-05
-1.15272e-05
9.24423e-05
-4.17453e-05
1.26805e-05
-6.33775e-05
-0.00084443
0.000870867
-0.000432831
0.000406394
-2.60843e-05
-0.000305688
0.000302241
-0.000149026
-8.30903e-05
9.82012e-05
4.48376e-05
-4.76238e-05
-0.000278139
0.000280925
-3.66572e-05
3.2433e-05
0.000196909
0.000759369
0.000413491
-0.000796258
-7.18828e-05
1.5449e-05
7.69565e-05
-2.05227e-05
-0.000149192
0.000135616
6.12553e-05
-4.76794e-05
-1.23047e-05
3.25522e-05
-9.9665e-06
-1.0281e-05
0.00022944
6.38189e-05
-0.000248421
0.00031142
0.000649553
-6.81991e-05
-6.51691e-05
6.7266e-05
6.61022e-05
1.58644e-05
-5.81209e-06
-5.20104e-05
4.1958e-05
-0.000160325
0.000124635
6.90677e-05
-3.33772e-05
-5.96993e-06
0.00022805
-0.000198611
-2.34692e-05
-1.10041e-05
0.000276963
-0.000243648
-2.23115e-05
0.000104276
-2.10846e-05
3.62891e-05
5.28005e-05
-0.000452886
0.000363796
-0.000663389
0.000667607
-4.21875e-06
0.000264338
1.87217e-05
-3.48905e-05
-0.000248169
0.000233864
1.27977e-05
-2.96545e-05
-0.000217007
-0.000362531
-0.00143195
0.00134516
0.000449323
9.04468e-06
0.000336978
-0.000299146
-4.68762e-05
0.000104051
-4.03842e-05
6.14471e-05
-0.000125114
7.97287e-06
0.000304901
-0.000273861
-3.90133e-05
4.51518e-05
3.47531e-05
-0.000416643
0.000336738
-0.000138585
1.66136e-05
0.000584818
-0.000462847
-0.000150246
-2.29191e-05
4.32485e-05
-0.000303628
-0.000113512
0.000414627
2.51344e-06
-0.000172812
-0.000204466
0.000244474
0.000132803
0.000152176
-6.64887e-05
-0.000200237
2.68372e-05
2.75961e-05
-0.000249791
0.000195358
4.79656e-05
-2.55747e-05
-0.000477415
0.000455024
-6.17811e-05
4.59147e-05
0.00017999
-0.000164124
1.15426e-05
4.73361e-06
-5.71676e-05
-0.000103676
0.000127289
-8.7245e-05
-1.33684e-05
3.0037e-05
-1.24943e-05
-4.17435e-06
5.61418e-05
-5.05066e-05
-4.03907e-05
3.47555e-05
-0.000177931
0.000243634
-3.58885e-05
-2.98144e-05
-7.86711e-05
9.70599e-05
-4.07507e-05
2.23619e-05
0.000382292
0.000100521
-5.06965e-05
-0.000432116
0.000784417
7.94383e-05
-4.26759e-05
-0.000821179
0.000389986
-0.000373708
0.000261143
-0.000277421
-0.000172677
0.000225105
-8.94712e-06
-4.34813e-05
1.02627e-05
-0.000242525
-1.22992e-05
0.000244562
-0.000191494
0.00024926
2.26539e-06
-6.00313e-05
0.000724035
0.000397079
0.000343661
-8.1912e-05
0.000200795
-0.000462544
-0.00027626
-0.000350398
0.000351195
0.000275463
-8.62048e-05
-0.000215535
5.48973e-05
0.000246842
0.000254761
-0.000190768
0.000430983
-0.000494976
7.05376e-05
-9.28271e-05
-9.13694e-05
0.000113659
-9.14523e-05
-0.000129291
9.07828e-05
0.000129961
-9.22829e-05
-0.000138056
9.2694e-05
0.000137645
-1.50309e-05
5.09492e-05
-3.86264e-05
0.000461678
-7.92624e-05
0.000124853
-0.000507268
9.01456e-05
-6.32657e-05
-0.000109691
8.28115e-05
3.89937e-05
-4.26357e-05
-8.3825e-05
8.74669e-05
0.00040868
0.000293673
-0.000702353
0.000112758
-2.62004e-05
-8.65576e-05
-7.52485e-05
-0.000126489
0.000104976
9.67623e-05
8.55588e-06
0.000353652
3.23073e-05
-0.000394516
4.23104e-05
0.000337862
0.000677204
-0.000200876
1.15353e-05
0.000575338
-0.000385997
1.0665e-05
-6.16081e-06
7.65305e-06
-0.000439037
7.54843e-05
3.21752e-05
0.000331377
-0.000216588
-0.00011464
0.000155383
0.000175845
-0.000825235
0.000775677
0.000463049
-0.00016615
4.16576e-05
-4.28922e-05
0.000167385
7.00227e-06
-2.93353e-05
0.000103591
-8.12579e-05
0.000190912
2.86238e-05
-5.99332e-05
-0.000159602
-6.95501e-05
2.30132e-05
-2.56461e-05
7.2183e-05
3.89707e-06
-5.76204e-05
7.00474e-05
-1.63241e-05
-0.000294404
5.30154e-05
0.000356361
5.53823e-06
1.87565e-05
-2.10987e-05
-3.19605e-06
5.46281e-05
-8.46392e-05
8.579e-05
0.000251383
-0.000231693
-1.96895e-05
-5.2585e-05
3.62074e-05
8.38003e-05
-6.74227e-05
-0.000229821
-0.000196889
0.000303265
0.000123444
0.000141761
-0.000541018
-0.000229855
-0.000269024
0.00025775
0.000844743
-3.45015e-05
5.91324e-05
6.30495e-05
-8.76803e-05
0.000348517
-0.000361175
1.5492e-05
-2.8336e-06
0.000107246
5.84893e-05
-0.000106931
-5.88049e-05
1.69782e-05
-2.40265e-05
8.85741e-05
-8.15258e-05
0.000951386
0.000413874
-0.00108828
-0.000276976
0.000283004
-0.000234195
-0.000145701
9.68913e-05
-0.000438827
-0.000499978
0.000982617
-4.38124e-05
6.233e-05
7.48854e-05
-2.80341e-05
-0.000109181
-8.90689e-05
4.52146e-06
0.000123679
-3.91318e-05
-0.000270453
5.07787e-05
-6.23797e-05
0.000282054
-0.000315892
1.50087e-05
0.000289527
1.13555e-05
-0.000379092
-0.000827726
0.00041056
-0.0003628
-0.000704471
0.00070905
0.000358221
-8.66776e-05
-2.71988e-05
2.41263e-05
8.97501e-05
-0.000282611
9.79101e-06
0.000256722
1.60981e-05
5.2879e-05
-0.000316676
-6.74388e-05
0.000331236
0.0001017
-0.000105494
-3.35912e-05
3.73851e-05
0.000336498
-0.000283938
-3.09794e-05
-2.158e-05
-0.000174812
0.00097668
8.91333e-05
-8.92192e-05
-2.70595e-05
2.71454e-05
-0.000190523
-0.000119852
0.000227323
8.30516e-05
0.00025045
-7.60479e-05
9.0478e-05
-0.000264881
1.81548e-05
-5.89352e-05
0.000185716
-0.000144936
-0.00110259
0.000562472
-0.00028605
4.71442e-06
-3.32405e-06
3.74934e-05
-3.88838e-05
-2.30969e-05
0.000364652
-2.88709e-05
-0.000312684
0.000158789
-0.000358969
0.000299921
-9.97405e-05
0.000370108
-0.000140705
-0.000312975
8.35721e-05
0.000327661
-0.000131023
0.000151409
-0.000348046
-2.88786e-05
-0.000194499
1.85933e-05
0.000204784
-0.000366073
0.000334621
0.000498704
-0.000467251
-3.86246e-05
-0.00019232
5.8477e-05
0.000172468
-8.18604e-05
-0.000264435
0.000204751
0.000141545
0.000194094
0.000228602
-0.0001263
-0.000296396
2.85323e-05
-0.000133894
-0.000121021
0.000101048
0.000153867
-2.75491e-05
-0.000242774
0.000259319
-2.20301e-05
-0.000199836
0.000215896
-0.000120878
0.00024278
-0.000457138
-0.000142383
5.79423e-06
-9.26261e-05
8.54785e-05
8.49077e-05
-7.77601e-05
7.54925e-05
-6.34478e-05
-0.000220623
0.000208578
0.000208191
-0.000101667
9.75306e-05
-0.000204054
-0.000476569
0.000380989
-0.000143503
0.000239082
0.000114572
-8.03003e-05
3.16431e-05
-0.000354518
-0.000780511
0.000628914
-0.000628649
-0.000335438
0.000200288
6.41722e-05
-5.90809e-06
-0.000258552
0.000241146
6.92492e-05
3.1461e-06
-0.000313541
0.000280353
0.000380512
-0.000283924
-0.00037694
8.36514e-06
-0.00031047
-3.67747e-05
0.00033888
9.78129e-05
0.000791992
0.000125457
-0.000127013
6.0389e-05
-5.88325e-05
0.000318637
-0.000561849
-0.000340678
0.00058389
8.70472e-05
-1.27164e-05
-9.41856e-05
1.98548e-05
3.89897e-07
0.000197986
-1.72112e-05
-0.000181164
4.19363e-06
0.000129528
-0.000116206
-1.75154e-05
-0.000140153
0.000209871
-0.000216025
0.000146307
-6.70136e-05
0.000470153
-0.0004371
3.39612e-05
0.000699098
4.8032e-05
2.34605e-05
-3.38898e-05
-3.76027e-05
0.000809074
-0.000185909
5.72319e-05
0.000847963
-0.000980695
7.55008e-05
-0.000153808
0.000148506
2.0819e-05
-1.55174e-05
9.08862e-05
-0.000149634
-5.93027e-05
0.000118051
0.000517175
-0.000253195
0.000250496
-0.000514477
-0.00128069
0.000101131
-1.82934e-07
-8.92781e-06
-9.20201e-05
0.000445573
-0.000397786
-7.08831e-05
0.0001786
-0.000359603
-6.35041e-05
-9.53509e-05
7.62847e-05
-0.00010197
0.000121036
0.000156136
-4.78354e-05
-0.000108301
-8.95386e-05
-0.000274644
0.000123927
0.000240256
-0.000127846
0.00014685
4.41153e-05
-6.31198e-05
3.57464e-05
-2.11635e-06
-0.0001656
0.00013197
6.67871e-05
-6.38679e-05
8.84019e-05
-9.13211e-05
-0.000289811
0.000294778
0.000309623
-0.000314591
0.000296606
0.000323079
-0.000402447
-0.000217238
6.05646e-06
-0.000264625
0.000268831
-0.000445952
0.000300202
0.000531994
-0.000386244
-8.33089e-05
-0.000106318
-0.000348219
4.13724e-05
-4.00459e-05
4.07721e-05
-1.04762e-05
9.75008e-06
-4.55713e-05
3.95672e-05
-3.9194e-06
9.92353e-06
-5.86604e-05
6.46499e-05
-1.44469e-05
8.4574e-06
-7.39044e-05
8.48288e-05
-2.14188e-05
1.04943e-05
-0.000315478
4.08401e-05
-5.87789e-05
-1.88621e-05
3.23708e-05
4.52702e-05
-0.000201177
0.00017981
0.000175431
-0.000154064
-0.000279835
-0.00033836
0.000386525
0.00023167
-2.19946e-05
-0.00037668
0.000476115
-7.74401e-05
3.04147e-05
6.39378e-06
0.000105122
-0.00014193
1.97323e-05
1.76094e-05
4.76458e-06
3.71853e-05
-2.89075e-06
0.000102524
-0.000136818
0.00015934
-0.00019979
0.000227906
-0.00027183
0.000130013
-8.60886e-05
-0.000109157
-3.00999e-06
-2.58214e-05
3.42211e-05
-7.19732e-05
-1.36551e-05
4.65044e-05
-0.000102399
0.000336362
-0.000327778
-0.000637232
6.0628e-05
-0.000106074
6.48096e-05
-1.93632e-05
-8.6563e-05
3.60094e-05
7.36387e-05
-2.30852e-05
2.19229e-05
-0.000379726
0.000327766
3.00366e-05
-0.000717223
0.000200562
-9.46609e-05
0.000433008
-0.000538909
0.000531059
8.00048e-06
5.06108e-05
-0.00058967
-5.3578e-05
6.46608e-05
-7.76299e-05
6.6547e-05
-0.000651809
-0.000247839
0.000295552
0.000604095
2.19828e-05
-4.35356e-05
6.74218e-05
-4.5869e-05
-9.77154e-05
-0.000103537
0.000118859
8.23928e-05
6.43477e-06
-1.10154e-05
-0.000149227
8.96859e-05
4.03033e-05
-5.00234e-05
-7.99658e-05
6.62365e-05
-0.0001352
0.00010471
-0.000306426
0.000657788
0.000347737
0.0016914
-0.00166443
-2.69756e-05
-0.000533905
-0.000363383
-0.000387313
0.00041506
-0.00032501
0.000297263
0.000512211
-0.000422876
-0.000185269
9.59349e-05
0.0001478
-2.4037e-05
-0.000143025
1.92621e-05
0.000248569
-0.000183003
-0.000245085
0.000179519
0.000138005
-0.000633948
0.000495942
0.000308424
0.000214965
-0.000374024
-0.000149365
5.70987e-05
-3.65296e-05
4.96841e-05
-7.02532e-05
-0.00062645
0.000438051
0.00028976
-0.000101362
-0.000156543
-9.92163e-05
0.000127807
0.000127952
-8.73191e-05
-9.38776e-05
0.000112502
6.86943e-05
-0.000666588
0.000238377
0.000633584
6.91549e-05
0.00019505
-9.48922e-05
-0.000169313
-0.00022084
-9.5955e-05
7.76713e-05
0.000239124
-0.000207829
0.00015331
-1.40473e-05
6.85667e-05
-0.000178625
0.000127012
1.02166e-05
4.13964e-05
0.00014138
-2.1012e-05
2.04231e-05
0.000268678
-2.38887e-05
-0.000240393
-4.39612e-06
0.000228769
-2.20726e-05
-0.000202954
-3.74321e-06
-0.000136818
-1.20058e-05
0.000203655
-5.4831e-05
-0.000283922
-0.000585249
-8.49006e-05
0.000975407
-0.000890507
-0.000186169
0.00016592
-0.000464402
0.000484651
-1.63083e-05
-0.000109536
3.44506e-05
9.13935e-05
0.000175408
-0.000217084
3.0514e-06
2.1985e-05
-6.04293e-05
-0.000312074
0.000350518
0.000162316
-4.43439e-05
-0.00016201
1.07371e-05
0.000151273
-7.37877e-05
0.000178194
-0.000145
-4.54236e-06
2.37866e-05
-1.33845e-05
-5.85966e-06
-1.015e-05
1.45086e-05
-7.56327e-06
3.20467e-06
7.91503e-05
-6.22383e-05
-0.00012644
0.000109528
-0.00073458
0.000741172
-6.59194e-06
-6.18576e-05
9.52216e-05
-7.26061e-05
3.92421e-05
-0.00033856
0.00029741
-9.40572e-06
5.0556e-05
-0.000348252
0.000375696
-0.000807955
0.000126723
-0.000103094
0.000205878
-0.000229507
9.16301e-05
-0.000108703
6.48802e-05
-0.000389763
-2.33367e-05
-4.95711e-05
2.3879e-05
8.1834e-05
2.04431e-05
-0.000293624
0.000273181
1.87483e-05
-0.000241293
0.000222545
-0.000281031
5.96272e-05
-0.00035802
-1.70851e-05
-7.18014e-05
8.41128e-05
8.30672e-05
-9.53786e-05
-0.00072545
-0.000136634
0.000862084
0.000177529
-0.000171951
-5.57869e-06
0.000387804
-0.000410351
0.000593835
-0.000571288
-0.000151952
0.000242955
0.000373945
0.000245916
-2.82093e-05
-0.000217707
0.000309381
-3.75834e-05
-0.000271798
-0.000268864
-0.000311849
0.000400484
0.000180228
0.000412311
-6.13668e-05
-0.000291274
-5.96706e-05
-0.000152914
0.0002363
-3.53834e-05
-4.8003e-05
-0.000236198
3.26828e-05
7.40338e-05
-4.775e-05
-9.11406e-05
6.48568e-05
7.92465e-05
3.16607e-05
-2.12214e-05
-0.000118119
-8.04393e-05
9.18265e-05
0.000106732
-0.000406884
-0.000334751
0.000466688
0.000274947
0.000438982
-0.000192442
-0.000398493
-9.05978e-06
1.36734e-05
-5.51176e-05
0.000171503
0.000219314
-0.000128046
-0.000262771
0.000747027
-2.57554e-05
-9.58273e-05
7.62501e-06
8.68802e-05
1.32213e-06
-4.49235e-06
3.78533e-05
2.75766e-05
-6.09376e-05
8.26279e-05
7.43116e-06
-9.0059e-05
9.56608e-05
8.72124e-06
-0.000104382
9.32633e-05
3.24237e-06
-9.65056e-05
8.28244e-05
1.2245e-06
-8.40489e-05
-0.000337529
-0.000114323
0.000284002
0.000167849
3.00882e-05
0.000915214
-0.000945302
8.26354e-05
-9.53263e-05
-5.88181e-05
7.15091e-05
0.000293611
-0.000232186
-0.000367004
0.000305579
-0.000355321
0.000271867
-0.000166701
0.000250154
-0.000677419
0.000476682
6.12624e-05
0.000139474
-1.82228e-05
5.14288e-05
-4.26494e-05
9.44339e-06
0.0004217
-0.00104258
-0.000334132
0.000955016
0.000861433
0.00013628
-0.000819928
-0.000177785
-7.91048e-05
5.65394e-05
-0.000108929
0.000131495
0.00026368
-0.000367957
-1.66018e-05
0.000113303
-8.47928e-05
-0.000124289
-0.000216052
0.000273179
6.71612e-05
-0.000235092
0.000107397
0.000127002
6.93813e-07
-0.00019462
0.000152508
3.99953e-05
3.44126e-05
-3.21344e-05
0.000118845
-0.000121123
-3.56779e-05
0.000105718
3.1091e-05
0.000350969
0.000108337
-0.000394426
0.000256139
0.000595394
-0.000235467
4.74179e-05
0.000106199
-2.9657e-05
-0.000123959
-9.81629e-07
3.70497e-05
-0.000171268
0.000316693
0.000104226
-0.000361293
9.0482e-05
-6.95068e-06
-8.35313e-05
-0.000209421
0.000215678
-0.000361578
-1.64652e-05
0.000405082
-0.000394275
5.65745e-06
1.8096e-05
-0.000390114
0.000393941
-0.000179992
-6.98453e-05
0.000219916
2.99212e-05
-8.57642e-06
-9.99172e-05
0.000109542
4.60053e-05
0.000461087
-0.000464578
-0.000397653