/*--------------------------------*- C++ -*----------------------------------*\
| =========                 |                                                 |
| \\      /  F ield         | OpenFOAM Extend Project: Open source CFD        |
|  \\    /   O peration     | Version:  1.6-ext                               |
|   \\  /    A nd           | Web:      www.extend-project.de                 |
|    \\/     M anipulation  |                                                 |
\*---------------------------------------------------------------------------*/
FoamFile
{
    version     2.0;
    format      ascii;
    class       volScalarField;
    location    "2000";
    object      Qr;
}
// * * * * * * * * * * * * * * * * * * * * * * * * * * * * * * * * * * * * * //

dimensions      [1 0 -3 0 0 0 0];

internalField   uniform 0;

boundaryField
{
    cabHeatTransmissiveWall
    {
        type            calculated;
        value           nonuniform List<scalar> 
189
(
-9.1719
2.61772
-3.37491
15.2328
-16.0431
-8.75427
-2.03094
2.58059
-18.0302
-8.87712
-11.1399
-3.46173
-4.82025
1.50297
0.510027
5.09115
-10.8975
-3.09965
-5.82258
-7.67094
1.89201
7.29214
-7.75495
-5.17974
-8.83139
3.47396
5.5342
-3.59202
-2.89776
-18.2795
0.379611
-16.5295
-16.9482
-13.062
6.33948
-14.2617
10.1283
2.58664
-13.4237
-9.77116
-4.26746
-16.8701
-16.3756
-9.25618
-13.3637
3.67895
-20.3389
4.22835
0.172779
7.40043
-2.70499
3.6633
-14.4968
4.75563
-12.0159
-18.3849
-11.6089
-14.5073
-9.6135
-13.1858
11.851
-12.1792
-19.899
4.28786
-22.602
-9.45654
6.12452
9.04312
-2.11134
7.59335
-5.80205
7.25031
2.13412
2.46934
-13.1023
-14.1041
5.79809
1.1506
-4.15815
-1.45861
-8.36089
-10.1052
0.253291
3.05356
7.48836
-5.82439
-23.1358
-16.4053
-16.3922
-19.0939
4.61459
2.79918
-8.65355
0.0650752
-7.0136
-5.61464
-14.1633
17.7244
-6.3256
4.28019
1.91504
-18.7336
-2.24409
-1.48894
6.66418
-2.58807
1.12792
-2.86621
-9.30094
-13.6437
4.24945
13.7911
-15.8125
-0.431148
6.01568
1.65057
3.91533
-18.7928
0.399735
-2.09378
-12.2767
-14.762
2.9279
1.01006
8.72599
-11.9119
8.28914
-25.7186
-4.73546
-0.916533
3.60055
10.1332
-15.1638
-11.4523
-3.6585
-18.3665
4.86428
5.81087
-1.77367
3.72172
0.051011
0.689466
-4.04171
4.0594
3.81849
7.2388
-2.42776
20.8803
-6.70658
11.2234
13.2229
13.6071
11.772
7.54263
2.01516
17.1762
9.34997
5.6923
18.2983
16.2307
-0.368982
4.56785
-3.30309
5.31053
13.5388
8.45608
17.9614
4.91703
23.0021
-6.41714
26.8661
6.53497
16.3143
24.7173
32.1064
6.32908
-5.25082
25.6255
13.6582
16.7138
22.0275
10.6522
14.3982
18.3878
6.69568
-3.27227
9.38075
6.33347
31.6094
)
;
    }
    bayHeatTransmissiveWall
    {
        type            calculated;
        value           nonuniform List<scalar> 
189
(
87.5636
75.8917
73.5801
86.7685
102.276
104.43
91.1531
75.6808
149.279
95.7875
139.5
90.8303
149.695
145.039
123.555
88.0519
73.2868
74.6414
137.729
151.882
132.511
149.188
115.912
78.8884
93.025
174.981
90.6703
96.705
115.319
102.801
102.232
139.65
109.972
94.837
94.2581
94.309
140.68
74.9958
142.91
139.812
122.57
126.925
186.621
103.158
100.142
138.848
137.151
92.6991
92.3661
93.2174
100.873
86.4763
148.062
119.462
123.531
109.305
125.472
75.0332
100.663
78.4875
101.438
150.418
97.8451
77.3741
85.7031
116.528
158.077
106.93
104.587
93.7905
86.9316
77.4952
128.203
178.094
155.218
159.285
160.864
159.609
91.5923
158.464
168.84
141.073
134.796
142.819
106.835
88.9968
86.7169
145.188
103.73
143.376
72.0715
133.088
76.551
138.39
80.5687
103.495
143.735
141.731
150.527
71.7245
117.166
139.574
74.5826
134.805
126.539
87.9007
94.7343
146.767
138.883
85.6079
131.447
110.691
101.035
175.655
140.768
115.723
115.03
88.4546
160.393
144.669
160.62
156.048
148.714
76.2375
106.874
149.444
92.565
171.712
96.8015
151.962
81.2523
119.46
96.3222
93.8121
89.3933
142.345
120.858
94.2024
122.816
87.3944
93.8025
118.57
142.387
103.705
75.5116
107.108
82.5197
102.036
103.522
144.932
100.681
97.656
157.01
140.684
79.8558
123.757
147.94
133.773
140.583
138.431
136.966
119.939
178.205
92.2097
150.401
100.199
174.084
103.632
108.852
148.68
117.599
74.3827
92.8194
156.056
151.311
72.5042
146.896
130.701
106.042
113.087
127.981
132.219
130.878
140.472
130.123
74.5012
94.2729
95.697
177.84
)
;
    }
    walls
    {
        type            calculated;
        value           nonuniform List<scalar> 
228
(
7.50418
8.86265
6.94438
13.5209
15.4134
8.47541
7.70062
10.8201
8.68437
12.7748
12.5657
12.9773
7.06555
12.3422
12.1691
10.3931
79.0563
86.4765
66.5869
35.6349
22.3807
46.4795
50.7698
81.7137
57.4795
53.5081
37.8453
53.4526
31.7182
74.7258
34.7403
67.51
64.4646
66.9035
25.5905
11.1371
59.5311
71.6534
72.7541
69.4851
18.7085
11.9174
69.938
74.2545
62.4471
10.8527
75.0644
22.3355
24.5398
121.279
143.775
29.6088
69.9885
15.2085
82.556
72.7605
23.8719
53.545
59.6564
46.3455
35.0013
17.9819
70.7068
73.2781
73.2337
73.3324
18.8629
47.6672
50.3449
11.9533
103.897
12.5479
75.3823
72.8338
74.5667
53.0055
81.4616
62.2374
55.1912
27.7583
29.043
81.8271
27.0282
28.8902
26.531
72.6862
58.9448
55.9652
35.1525
63.2543
72.8622
82.432
75.2749
53.2918
82.379
14.3243
94.764
73.877
50.1114
51.7973
36.4451
15.1238
71.5417
62.8476
37.3689
67.4204
26.5961
13.9768
80.4369
53.3318
72.3552
70.4505
78.2816
74.7472
110.458
57.6582
23.4226
75.5689
54.7535
72.8329
56.7842
35.1903
78.7202
80.1554
54.6136
73.1329
71.8385
110.525
72.2262
125.117
19.5753
26.6038
34.7813
24.8904
24.022
23.1834
22.1965
21.3533
24.2686
24.0858
23.9125
23.7402
23.5697
26.2438
26.0031
25.7794
25.5632
25.3488
28.0013
26.8446
25.7915
24.6295
23.5903
119.856
117.179
229.576
289.36
325.657
73.163
73.4465
79.7592
85.7457
91.2457
83.3917
88.987
94.3914
99.8092
104.86
155.144
257.614
301.349
322.778
334.725
9.81547
9.44242
18.3248
20.6313
90.2366
74.737
60.1933
80.0677
53.0475
72.5869
49.4079
82.5002
45.9346
79.1208
42.6011
85.9865
39.3906
76.9914
36.14
32.588
29.7912
27.5648
24.8104
77.3478
78.3403
77.7601
116.382
56.0059
73.1674
71.3971
97.8994
28.8463
57.8468
39.7927
32.4336
55.2773
63.5589
92.7172
69.8968
21.7891
80.7471
73.1991
60.818
79.3837
71.569
91.2782
91.9234
93.6115
95.3603
114.23
98.7558
26.3069
19.9561
99.1259
32.841
)
;
    }
    topExtWall
    {
        type            calculated;
        value           nonuniform List<scalar> 
172
(
96.2409
88.1156
80.4723
94.1699
96.1958
87.6183
87.1468
94.5635
85.5092
85.7988
87.2051
87.4749
87.6924
87.6346
81.655
86.2788
85.5484
96.2651
86.8275
80.5429
88.4409
86.8302
94.3627
89.2756
88.5134
86.4199
81.9735
88.1837
79.188
88.0926
88.6976
86.3511
86.9107
82.0089
87.2605
87.0782
96.8704
88.5133
89.1236
86.8847
87.247
88.8717
86.3909
85.1229
88.7615
85.666
96.0499
85.4985
88.7405
79.5667
87.4651
79.331
85.5321
95.5052
96.6027
88.4047
87.3274
86.7788
83.8214
81.6557
79.5272
96.9538
96.4693
87.2335
78.955
97.0988
85.596
82.9848
96.7313
85.6302
95.3262
87.5551
94.901
97.4272
96.5675
78.7563
85.3435
79.0254
87.3758
94.974
88.6094
81.4917
85.6363
80.4764
79.3794
96.4936
86.9295
96.2771
86.0279
86.6489
87.607
86.8976
87.4542
88.4659
84.8005
81.1576
79.6767
94.5223
93.9796
79.6298
85.7022
93.4054
95.384
88.4192
97.4634
85.2279
97.2226
96.261
95.1387
96.7403
86.6517
97.5646
96.0352
88.2289
78.2759
86.6331
78.4319
80.5813
87.5425
94.8008
86.3253
88.4239
88.7777
85.4022
79.5675
77.5003
87.6069
88.5108
87.1373
86.589
97.0487
79.5429
78.7599
79.1636
95.8681
86.5489
94.4229
87.6558
75.4657
82.4235
80.9115
98.849
97.2975
97.9389
83.6593
82.979
100.529
96.3051
97.2298
99.0995
83.8286
84.9097
98.399
96.4904
93.961
92.2207
87.8478
83.1879
82.5209
90.6317
81.4879
79.6056
84.263
88.3288
84.8367
86.7128
75.7008
83.3209
83.8501
88.0255
75.4275
84.9235
)
;
    }
    toSolidR
    {
        type            calculated;
        value           nonuniform List<scalar> 
67
(
20.0503
18.6233
21.0582
20.5198
11.5808
16.1535
23.2543
18.6795
25.4112
29.9628
21.5415
29.4608
32.1483
9.35451
18.152
26.1904
31.0115
17.5293
25.9754
20.6133
21.0783
26.787
22.6406
24.5342
12.2763
30.0826
20.0333
24.0575
20.0972
25.8977
28.825
16.9117
17.7872
25.0366
13.96
8.99116
13.6856
19.5338
21.8294
18.2027
18.2514
31.3031
17.9779
27.2687
24.2968
27.3358
27.9583
28.8137
14.8869
28.9285
27.5571
31.459
17.4676
18.1338
19.1169
31.8504
33.6731
36.9004
28.227
36.844
37.748
35.1098
28.8351
25.6456
24.8875
39.8221
25.0053
)
;
    }
    cabInlet
    {
        type            calculated;
        value           nonuniform List<scalar> 4(201.762 201.792 201.964 201.688);
    }
    toSolidL
    {
        type            calculated;
        value           nonuniform List<scalar> 
67
(
15.1984
22.0672
12.6437
15.4743
18.4747
17.6283
16.2485
16.2561
19.7121
17.3072
19.1158
18.8622
21.451
16.9416
19.2207
21.1891
16.7472
20.3817
14.1268
17.3934
22.4551
17.3908
20.69
20.4944
21.3812
16.5665
17.5525
20.8614
19.5208
21.5282
32.8819
21.8169
17.4612
20.2828
20.9255
20.9619
19.3291
22.8376
19.6209
22.0396
17.7012
20.4262
20.5884
25.0595
19.3599
19.5972
17.8936
24.4682
20.1585
20.9938
18.6088
17.8346
20.8625
20.053
38.7938
36.9721
26.3583
36.108
30.9332
23.82
29.8952
28.0955
24.3274
25.5792
37.4847
26.7433
31.3664
)
;
    }
    passengers
    {
        type            calculated;
        value           nonuniform List<scalar> 
672
(
103.543
-150.795
104.194
-3.30031
107.824
-186.992
-151.075
-17.592
-121.004
-144.001
-144.531
111.692
-174.565
111.516
-225.062
-109.589
103.921
-105.181
74.3602
112.973
88.0318
-128.502
-56.2287
-55.6935
-100.543
-105.225
-179.312
91.7423
119.931
112.079
-219.303
117.394
-183.252
-168.724
101.29
-219.509
7.81903
106.543
83.4442
24.5752
-158.336
-185.453
85.8738
115.636
68.9333
78.8413
70.6308
101.771
106.841
-102.118
81.7644
-16.6811
-54.9051
-204.721
83.3379
-171.204
113.571
107.85
67.1345
-217.817
104.617
123.436
-62.9751
-133.661
103.209
-62.5914
-70.2637
-116.81
-117.095
113.825
-33.5683
98.2119
-225.871
-149.749
76.0882
-88.9256
-53.2657
-29.1548
-16.9482
118.286
106.613
106.534
120.929
-119.806
-208.659
-118.334
-139.183
106.085
114.602
102.814
-98.0987
-102.752
-146.94
29.2565
106.051
-128.604
-193.744
102.777
-196.13
62.0338
-192.216
-129.499
-90.5632
99.5867
-144.429
-203.317
85.5479
-114.124
101.202
-208.784
-152.797
-186.457
-254.908
-86.2907
-126.36
-204.88
-87.5106
-180.838
106.538
33.7161
93.894
66.8076
104.565
63.6357
72.6366
30.6774
-136.971
-206.498
94.4245
-208.917
16.2477
-232.24
-45.8602
-59.0843
-83.0657
82.6249
-58.6572
109.498
-73.003
-129.408
-141.169
98.9617
72.0644
-176.664
-120.856
106.225
111.15
86.8797
102.2
-146.187
124.759
19.9557
-155.218
103.446
-170.861
-67.8947
-202.105
80.8254
-111.233
40.8666
-131.484
-108.881
0.568134
-151.408
-135.785
104.862
-249.601
50.8733
87.6579
95.0951
-135.584
-93.8563
102.368
-187.247
81.5986
-124.7
97.7962
-116.15
-109.606
-66.991
-68.122
-53.5352
-131.724
95.22
101.742
-92.3065
61.0198
101.213
-94.6046
-83.1347
-89.0143
-131.623
-210.149
112.514
-123.304
-148.305
-27.6922
-132.671
-59.9234
-99.6755
-61.9636
-78.4705
-95.4494
-40.2176
82.3747
-167.839
62.3381
-239.434
108.319
-193.538
-115.233
114.553
-27.8792
4.55676
19.1707
-61.4599
-147.781
-226.42
107.078
-151.989
-52.0884
-48.2145
88.7279
-83.9971
-122.067
-80.9363
-149.51
-138.575
-175.863
64.273
97.8548
100.615
53.4325
62.3139
-52.6799
-96.5039
-164.907
91.8914
-147.728
-109.408
-40.5167
-164.548
99.603
-112.489
-103.916
-65.9817
-181.174
-157.772
-185.017
100.116
93.94
106.68
-207.526
-240.968
-56.4556
-103.728
-140.695
-113.423
-140.825
-99.1405
-63.4994
-87.4619
-55.7526
-95.0166
-53.2952
-85.759
-47.5105
-97.0108
-195.64
-87.0826
-173.65
42.27
-180.255
-176.836
-128.765
-125.217
-137.007
30.2783
-142.687
-220
114.006
-5.93453
91.4815
92.2442
97.7159
-61.9139
-117.25
-60.7304
-93.475
111.853
98.4258
107.24
-52.6024
-51.2058
104.723
-198.278
-222.961
-141.697
-154.095
-144.223
-146.795
109.574
-206.991
83.3051
-88.5816
-95.5556
-136.824
-78.9363
-7.55977
-18.871
-52.8529
-89.6584
58.8093
-88.501
-8.96606
26.8302
36.17
-37.9737
41.8889
45.3541
-64.334
-33.1085
-13.7426
11.3897
-108.42
-135.158
11.5305
-68.3387
-95.2893
-102.885
-144.485
-112.026
-24.5035
-36.5136
-72.2613
-112.037
82.5654
84.758
-213.319
-16.7805
79.0616
-43.5511
112.469
98.4933
-46.4535
-38.676
-83.4861
-120.021
-83.3129
-133.792
-107.074
-93.6142
70.7135
-45.9543
-191.659
-88.8117
-140.258
-122.029
96.8139
35.7236
99.622
-134.03
-176.672
-27.9369
-62.1588
-96.0328
-40.9082
-72.4266
-35.523
-41.2165
-168.107
90.8771
112.423
-157.295
89.5847
32.598
59.8504
111.385
77.514
-120.036
-71.8457
-83.2531
-91.1409
-40.4731
-113.207
-7.37866
100.99
-35.043
-184.311
-201.639
75.7799
100.2
103.758
-161.954
18.9549
-1.45083
-157.129
115.937
-4.67825
106.516
0.128709
-17.3644
-61.4902
-87.5642
-115.433
-102.185
-80.3753
-121.605
96.7484
-191.812
95.8074
-182.391
102.651
-104.286
-174.771
-74.9307
34.772
-125.749
21.7554
-10.6891
-62.6032
-160.905
-104.182
-42.2021
-74.8367
-65.4166
-115.599
-79.6605
-58.5334
-105.644
-77.951
-211.605
-76.0299
-30.7724
-59.4606
-99.5117
74.7306
-67.5102
-114.862
-88.4256
-255.369
-78.6572
-22.164
-84.5293
93.4999
-162.195
-90.4537
97.4455
-138.868
-49.7509
-95.5594
-166.844
-6.82022
-42.9249
-92.7855
-60.7291
-22.6931
-177.717
66.5252
-191.745
85.5799
94.4236
100.305
69.1973
79.3162
99.0049
100.642
99.1434
115.782
8.95749
-3.47465
71.9392
65.7994
98.574
100.131
50.5668
79.9159
53.4823
82.7683
96.8016
-166.639
-226.436
-153.552
31.2428
-31.3091
-41.9182
-1.07386
0.512398
36.4446
-17.4104
12.1071
16.1291
-13.7677
-232.114
15.3837
-16.3977
-25.0973
12.4289
39.5951
-10.7626
22.6684
19.7935
-185.631
-38.1506
96.4875
-41.4133
-55.0333
-9.10571
-8.63224
32.0529
-28.4399
8.64472
-0.0241783
117.106
20.7517
-34.5503
-36.5849
1.05284
-5.41966
3.31563
6.05909
18.3329
-29.1523
103.699
104.372
79.9804
83.8695
102.428
84.0139
-157.651
-35.5382
-28.8983
-75.2899
-83.2551
-62.1391
23.9527
-16.3244
36.7616
42.6264
22.5655
19.0736
-4.6654
64.9486
-67.9249
-43.3621
-11.5543
-8.22023
-53.1301
37.51
-58.0527
-24.4629
-64.3355
-6.68424
41.9541
-31.7438
-26.6751
56.7351
-79.9594
81.5419
70.3132
10.5776
-36.4199
80.3055
-165.663
-122.498
-148.821
82.8252
73.7666
-31.6295
9.30022
-0.874774
3.38993
-41.4593
-48.7546
-5.68666
-18.9757
10.2986
-93.3712
-57.6752
-83.0828
-76.0478
-87.9545
-79.4049
112.488
79.21
68.6378
72.6331
76.9838
73.762
-4.06185
-11.5529
-0.997009
-22.6493
-23.8543
37.002
-44.6781
-78.649
56.59
86.7258
-75.3847
94.6863
-53.7944
47.335
10.917
-160.406
-126.764
103.647
-124.622
-49.4805
-72.7213
-21.1565
-56.7982
-26.9966
83.1366
-127.947
-82.7333
-31.0096
-104.867
109.197
71.8178
38.508
20.0038
91.8777
65.059
-63.5649
118.132
71.6008
115.435
121.706
58.8717
113.429
-9.87874
97.1355
72.4036
-56.3171
-69.9562
-68.8032
118.277
86.1425
94.2319
109.313
93.1176
66.6426
86.9894
-51.4393
-132.24
74.0789
24.5206
-90.4652
-3.4824
57.9481
-72.9856
-114.46
14.4692
103.57
-62.2589
102.178
-82.0111
85.0371
115.729
-139.172
-110.016
-56.8055
-78.2963
-113.913
-86.5759
82.0659
-71.8517
-96.1393
-103.556
123.834
-91.042
)
;
    }
    bottomExtWall
    {
        type            calculated;
        value           nonuniform List<scalar> 
300
(
165.409
164.572
164.493
164.502
164.5
164.261
163.522
161.029
165.721
166.754
175.869
164.777
168.735
147.107
182.056
159.087
174.525
194.913
170.787
162.841
148.305
177.42
172.083
164.332
166.859
168.899
164.564
166.722
165.564
153.052
182.108
178.693
163.841
146.572
154.6
153.195
169.954
157.93
177.175
148.502
180.361
172.35
138.186
157.337
154.943
188.284
143.504
161.259
175.185
175.419
149.065
169.139
169.433
189.256
149.823
158.813
162.147
178.138
146.882
163.043
152.063
190.472
153.888
153.732
150.73
171.243
178.516
154.478
151.192
161.274
174.247
120.568
163.512
147.278
188.049
189.54
169.168
139.876
145.029
160.259
150.186
185.185
161.527
162.647
165.308
151.691
149.681
192.199
172.913
144.137
169.877
145.789
159.393
165.589
149.996
188.392
140.549
151.621
167.66
171.17
177.137
185.733
165.954
169.175
154.465
152.709
138.021
140.47
147.272
151.824
154.442
174.575
145.369
164.681
172.226
180.247
173.242
146.213
153.164
175.07
175.69
174.441
140.94
174.958
156.192
177.94
149.682
151.068
145.02
146.422
163.806
161.725
164.576
189.9
186.467
176.583
209.046
155.353
139.783
142.727
176.97
151.936
162.535
145.657
150.975
168.865
171.762
199.074
136.147
154.991
140.897
146.203
167.774
171.829
156.267
172.925
157.024
142.309
169.112
171.402
145.946
160.251
126.317
149.809
177.793
159.923
134.472
167.838
176.128
144.651
140.922
164.125
134.81
139.886
193.99
147.862
213.329
202.573
173.049
154.465
145.769
184.059
131.237
201.063
174.472
145.537
165.132
153.145
142.575
144.368
149.728
168.881
184.449
148.279
198.554
154.591
167.801
166.052
163.368
172.666
128.895
145.192
164.326
173.63
176.438
141.029
171.822
196.803
146.3
133.986
153.734
134.612
144.916
146.252
155.699
168.024
166.219
180.885
171.605
135.962
139.244
155.886
191.093
160.76
190.499
187.473
187.966
189.806
139.039
134.937
180.947
187.284
193.854
130.745
157.489
185.561
157.187
135.847
141.564
140.136
157.42
159.427
147.922
148.832
157.577
204.796
166.659
182.353
174.228
172.998
154.979
156.401
153.027
156.257
167.797
156.321
202.507
159.366
157.992
157.348
148.002
156.889
156.428
164.301
159.673
161.318
168.534
176.716
151.002
151.526
168.481
154.803
192.455
152.533
164.967
153.258
160.937
163.406
189.445
142.443
196.976
151.83
140.561
186.351
203.926
172.36
170.239
175.879
181.219
160.141
158.471
213.566
193.701
170.17
189.119
180.018
151.391
174.065
172.428
178.515
)
;
    }
    core2
    {
        type            calculated;
        value           nonuniform List<scalar> 
118
(
-64.306
-30.3271
-33.7575
-437.194
-258.657
-229.233
-406.825
-304.288
-434.306
-282.679
-248.515
-317.304
-499.361
-124.511
-451.147
-208.989
-108.736
-205.606
-546.94
-653.129
12.622
-17.6997
-17.5438
-171.183
-111.693
-261.453
-463.413
-157.239
-178.807
-370.167
-368.131
-357.092
-225.024
-318.439
-69.4235
-284.272
-314.699
8.57248
-219.386
-67.2464
-82.0386
-307.206
-320.509
-318.106
-77.5345
-285.946
-283.773
-340.058
-254.248
-89.6869
-48.2985
-185.506
-435.946
-331.013
-254.078
-580.363
-511.465
15.8908
-385.235
-410.322
-18.3901
-526.337
-113.992
-196.734
-210.499
-443.758
26.6453
-197.084
-212.388
-291.109
-451.768
-342.399
-367.87
-393.172
-19.9835
-404.245
-320.365
-499.708
-295.367
-120.666
-45.2911
-104.177
-493.622
-227.734
-376.542
-506.854
-84.4845
-451.87
-18.3015
-586.282
-123.641
-31.3028
-133.386
-297.446
-155.385
-151.444
-32.8889
-158.807
-324.313
-3.18169
-265.922
-74.7876
-297.912
-114.614
-103.863
-101.427
-146.495
-223.438
-279.83
-106.595
-102.963
-133.177
-68.3146
-141.647
17.7194
-5.78085
-37.845
-208.44
)
;
    }
    core1
    {
        type            calculated;
        value           nonuniform List<scalar> 
148
(
-424.85
-668.768
-616.341
-589.067
-356.049
-660.478
-795.142
-712.611
-264.731
-661.074
-563.919
-723.226
-1284.6
-531.442
-1183.55
-425.472
-623.517
-667.221
-496.902
-555.81
-276.997
-425.847
-483.618
-748.562
-681.944
-572.763
-619.065
-324.429
-460.45
-775.742
-658
-708.822
-541.723
-480.541
-551.969
-507.695
-657.834
-462.943
-221.322
-359.625
-529.738
-518.802
-990.649
-684.446
-692.754
-334.716
-745.869
-640.695
-476.72
-547.948
-624.803
-458.06
-448.642
-401.178
-689.611
-606.596
-532.011
-602.544
-939.916
-766.314
-1129.05
-544.592
-414.451
-236.394
-361.664
-999.24
-540.496
-559.971
-399.369
-670.05
-1144.56
-768.398
-400.42
-656.948
-450.995
-583.683
-369.075
-769.21
-628.221
-235.844
-498.506
-900.466
-553.826
-548.421
-342.354
-1010.13
-1005.39
-548.026
-512.211
-392.329
-423.375
-452.971
-321.469
-655.34
-514.158
-591.791
-327.407
-538.381
-1110.24
-632.234
-449.915
-522.264
-356.02
-216.079
-491.387
-642.393
-48.6583
-157.772
-192.668
-191.479
-236.988
-260.61
-212.293
-209.409
-144.068
-143.392
-184.184
-173.819
-119.965
-213.796
-217.222
-243.746
-675.744
-381.021
-89.9641
-240.621
-217.729
-191.07
-278.431
-158.842
-328.7
-152.257
-96.0494
-68.7465
-130.132
-84.5229
-78.9185
-48.9931
-214.224
-99.9632
-283.977
-265.372
-298.471
-118.201
-142.596
-110.02
-90.6316
-139.262
)
;
    }
    bayInletL
    {
        type            calculated;
        value           nonuniform List<scalar> 9(404.816 378.086 375.816 372.731 371.093 406.823 374.113 401.969 408.489);
    }
    bayInletR
    {
        type            calculated;
        value           nonuniform List<scalar> 9(455.107 461.416 457.79 453.047 459.486 450.983 453.273 462.726 455.799);
    }
    cabOutletL
    {
        type            calculated;
        value           nonuniform List<scalar> 4(84.8291 103.026 128.243 129.923);
    }
    cabOutletR
    {
        type            calculated;
        value           nonuniform List<scalar> 4(141.737 142.286 129.397 106.822);
    }
    bayOutletL
    {
        type            calculated;
        value           nonuniform List<scalar> 5(427.014 344.122 327.723 323.858 315.435);
    }
    bayOutletR
    {
        type            calculated;
        value           nonuniform List<scalar> 5(317.56 338.015 350.113 367.272 442.959);
    }
    defaultFaces
    {
        type            empty;
    }
}


// ************************************************************************* //
