/*--------------------------------*- C++ -*----------------------------------*\
| =========                 |                                                 |
| \\      /  F ield         | OpenFOAM Extend Project: Open source CFD        |
|  \\    /   O peration     | Version:  1.6-ext                               |
|   \\  /    A nd           | Web:      www.extend-project.de                 |
|    \\/     M anipulation  |                                                 |
\*---------------------------------------------------------------------------*/
FoamFile
{
    version     2.0;
    format      ascii;
    class       volScalarField;
    location    "2000";
    object      T;
}
// * * * * * * * * * * * * * * * * * * * * * * * * * * * * * * * * * * * * * //

dimensions      [0 0 0 1 0 0 0];

internalField   nonuniform List<scalar> 
26307
(
287.165
291.176
292.545
299.471
289.829
289.142
300.332
288.053
296.546
287.137
287.892
288.762
291.026
293.339
301.504
292.449
288.403
300.544
292.8
288.125
287.376
287.642
299.997
300.57
292.105
288.049
287.59
303.041
289.165
287.361
301.038
287.507
297.035
288.7
288.656
288.727
287.229
291.867
292.839
287.718
296.643
301.202
287.329
293.86
290.014
292.192
291.109
287.095
287.497
295.64
297.249
291.285
288.731
292.917
291.069
288.52
290.594
290.78
286.762
291.613
291.534
297.092
301.554
301.265
288.133
299.801
287.256
294.034
289.321
287.787
287.696
292.894
287.316
298.737
298.872
287.119
289.169
290.262
287.407
298.135
295.812
287.191
307.565
287.717
287.294
286.931
289.161
288.605
287.364
300.557
286.934
293.85
293.173
294.442
294.21
287.926
294.409
296.991
287.695
290.657
301.94
295.562
287.046
287.11
289.022
296.137
296.752
290.673
287.112
288.239
287.486
305.041
292.845
287.566
298.812
304.679
304.674
289.656
287.363
287.199
287.468
289.589
292.25
294.953
290.484
292.44
287.745
290.664
302.206
294.662
294.656
298.888
287.749
289.896
288.412
288.495
287.043
287.403
287.975
289.828
287.225
288.755
289.443
299.77
287.489
287.757
287.385
290
294.9
292.127
287.485
290.324
289.493
287.401
287.696
287.701
292.528
290.823
289.2
300.495
289.455
287.84
289.546
288.269
286.946
287.902
289.633
287.998
290.906
287.682
287.164
287.531
287.285
288.322
301.397
291.709
298.944
287.118
287.091
287.613
288.959
290.173
287.336
293.85
289.536
288.232
293.596
300.369
301.593
289.04
289.356
292.43
299.84
287.044
291.677
288.271
300.614
287.605
290.064
287.187
303.732
287.088
290.372
292.097
291.375
288.565
293.856
300.932
287.504
293.217
288.594
287.981
288.474
292.942
290.301
287.394
288.807
287.474
287.63
300.259
287.876
293.123
300.114
287.506
293.675
287.157
300.867
287.443
287.461
291.651
287.403
288.504
303.34
293.614
287.555
289.492
288.081
293.035
292.144
288.182
302.392
302.495
291.649
287.336
287.921
289.068
288.122
287.057
287.923
287.425
287.255
287.426
295.643
296.894
293.127
296.359
294.857
291.791
301.899
287.418
287.049
306.488
296.121
293.903
287.179
296.618
288.17
286.728
288.249
292.348
286.858
287.518
287.804
291.587
287.163
307.474
288.975
293.598
292.33
293.49
288.487
288.04
288.173
295.772
291.296
287.611
289.553
299.43
294.736
287.18
290.492
298.217
287.269
286.828
286.919
287.445
289.87
289.791
286.682
299.073
287.471
289.613
287.164
286.772
295.945
294.884
296.64
289.521
289.195
299.769
287.237
298.646
287.991
289.909
294.267
300.215
303.294
288.643
287.469
293.817
292.381
287.511
290.65
288.443
290.58
297.455
292.353
287.947
287.199
287.928
287.324
299.089
297.172
286.765
288.116
293.747
287.038
290.642
287.299
288.019
300.236
299.794
287.252
287.229
291.626
286.945
288.07
287.537
287.582
287.471
286.587
298.612
300.36
292.071
287.54
287.001
290.341
301.693
301.504
288.274
288.323
288.637
288.177
292.026
296.434
294.567
284.892
288.16
291.668
287.693
287.7
288.186
290.892
287.756
287.505
287.403
287.052
287.331
288.118
293.528
287.586
288.268
300.522
302.378
301.401
287.546
287.015
287.362
287.585
286.931
288.003
286.651
294.024
291.211
287.704
287.339
297.151
291.976
293.642
301.845
291.713
295.999
291.358
288.255
288.985
287.483
288.509
297.085
286.846
290.947
295.893
292.436
286.956
286.563
290.99
289.64
296.864
301.669
301.11
288.135
300.014
292.807
293.267
301.696
287.979
287.221
290.909
290.602
287.275
296.032
287.375
284.053
288.101
286.909
296.389
287.866
294.156
288.23
286.533
286.645
293.5
287.78
297.111
289.061
287.229
292.287
289.35
286.947
292.353
287.435
287.156
294.942
288.099
291.966
287.026
287.94
288.083
288.305
290.259
300.049
289.086
300.23
293.327
288.527
288.687
287.323
292.9
301.144
301.315
292.92
287.444
289.648
286.602
286.999
287.875
288.124
288.777
290.597
291.424
292.291
287.25
291.223
299.437
288.639
292.541
289.286
286.721
295.226
287.22
288.207
287.834
287.544
288.28
291.183
292.099
288.088
287.089
287.127
300.94
299.62
287.123
288.072
288.21
299.822
287.446
287.498
286.929
288.57
288.105
288.238
298.275
298.19
294.146
294.41
287.783
292.815
297.485
287.62
287.634
289.434
302.466
289.19
287.578
300.331
291.333
293.107
301.39
286.9
287.42
296.02
288.42
286.734
287.568
288.205
295.088
286.99
301.926
291.338
287.838
294.408
288.146
286.791
288.345
287.166
290.83
287.429
304.712
288.672
291.629
288.022
297.034
287.218
294.793
291.545
291.123
287.804
288.424
288.637
288.376
299.718
288.999
289.565
287.821
290.256
289.966
287.378
300.607
291.114
288.206
288.048
299.695
292.662
291.842
290.798
299.358
291.896
297.203
288.004
286.532
298.782
288.089
288.249
300.32
297.655
296.351
286.921
287.789
287.409
291.151
293.108
290.638
288.135
296.767
296.92
292.437
287.499
287.538
288.123
295.952
294.214
287.813
287.168
288.199
300.546
287.065
291.71
296.484
311.436
296.958
297.174
301.086
301.517
291.444
289.265
287.606
288.099
288.022
287.354
288.913
290.673
286.714
287.139
300.651
287.324
288.043
287.016
287.738
288.268
296.803
292.514
288.348
287.226
298.446
288.155
287.905
306.177
287.361
289.213
288.77
297.047
287.12
288.211
287.072
290.616
288.011
286.643
287.838
287.2
287.904
290.643
287.137
288.105
290.138
299.33
288.352
288.241
287.264
301.256
288.045
297.949
287.027
300.435
286.97
299.584
288.078
288.183
289.665
295.196
296.112
287.122
291.255
300.164
304.998
299.86
288.868
291.845
289.145
287.679
291.491
287.652
287.692
287.834
297.487
291.144
290.075
291.008
295.185
288.341
286.472
288.285
288.831
296.706
287.073
290.323
288.739
292.261
300.562
298.042
289.132
291.859
287.383
301.616
288.031
290.821
302.855
292.2
287.7
287.767
287.071
290.499
287.927
287.55
288.147
292.067
288.387
288.024
292.394
286.494
288.507
295.673
287.636
291.409
287.759
288.522
287.702
292.437
289.636
288.12
287.875
299.943
288.339
292.835
288.306
286.546
287.249
288.938
287.418
288.365
287.506
290.72
287.106
300.346
287.632
288.164
287.889
287.81
288.114
289.734
290.414
290.301
298.732
288.426
288.451
288.07
287.218
289.709
290.024
289.295
287.985
299.009
288.31
288.082
303.589
296.815
296.597
289.978
288.109
288.7
287.182
287.037
288.497
288.072
290.15
289.838
292.634
289.791
300.056
288.267
289.736
287.553
293.943
290.727
300.521
289.003
296.16
293.892
300.268
295.873
287.778
287.461
290.779
299.291
287.918
293.968
288.372
293.809
288.574
288.009
289.613
290.064
287.032
285.517
288.581
287.753
287.933
297.281
287.974
300.263
289.71
289.702
291.907
291.984
287.134
285.243
287.768
288.156
287.879
286.953
287.5
294.831
287.697
287.42
292.034
294.918
296.317
287.073
290.784
298.283
300.828
291.394
290.122
287.655
289.4
287.687
287.328
288.474
299.153
287.443
288.026
293.558
300.504
288.711
287.244
298.408
287.963
287.487
287.563
290.26
288.153
287.718
291.144
288.019
287.878
287.211
291.601
287.257
286.971
294.278
295.033
291.708
291.785
288.383
287.056
304.935
300.656
287.16
287.602
298.396
286.564
295.789
299.621
299.62
295.246
293.801
292.854
293.931
296.956
289.387
287.409
287.183
300.141
289.503
293.353
289.911
287.276
287.336
288.115
289.106
291.113
294.296
290.292
303.174
288.137
295.836
295.001
287.427
287.072
288.78
287.261
290.924
287.751
287.794
299.153
286.946
287.859
293.624
295.638
288.629
287.982
286.597
300.032
298.725
288.456
291.513
298.73
295.815
291.086
290.045
287.371
287.921
297.796
287.311
289.89
293.514
288.085
287.384
287.223
300.237
288.055
291.161
289.675
290.621
287.957
288.122
286.474
288.107
300.831
291.565
290.978
287.435
291.281
287.313
291.652
290.054
293.138
295.53
287.694
296.317
291.804
288.439
288.11
298.657
286.799
287.654
286.622
287.705
297.633
287.527
290.015
286.966
290.252
290.374
287.764
287.041
287.645
290.685
289.564
290.353
288.88
291.699
291.185
292.904
287.971
288.066
289.148
291.416
294.329
295.643
296.744
295.68
293.018
287.276
287.667
288.117
288.178
289.348
302.986
300.903
287.314
289.562
288.729
288.691
288.945
287.198
292.826
287.101
287.34
288.33
287.991
286.496
288.459
287.282
289.481
291.39
287.976
299.877
292.897
287.298
297.224
290.384
290.27
288.352
288.02
291.415
306.245
300.116
288.636
304.89
294.097
291.859
294.916
294.336
288.202
287.787
287.098
296.794
295.914
288.329
288.104
291.703
287.179
292.134
288.648
287.23
296.149
300.726
288.939
301.151
287.89
290.114
288.073
287.78
295.662
290.023
290.645
287.505
290.72
287.656
287.868
295.037
291.036
291.553
290.103
287.794
287.38
287.157
288.002
287.877
288.42
287.146
300.353
287.092
294.048
287.471
292.334
287.257
295.534
287.314
287.946
290.469
288.265
287.872
286.941
287.646
292.81
290.014
286.551
299.997
292.058
291.299
287.685
300.015
295.83
299.555
288.11
289.236
290.039
301.096
299.849
296.09
292.469
287.89
287.677
295.068
288.485
290.543
288.075
289.394
295.068
286.856
287.942
287.655
288.494
300.398
287.433
289.943
290.244
288.232
291.73
289.695
288.295
290.557
288.321
289.213
287.055
287.815
287.311
287.659
290.188
294.914
293.028
294.292
287.332
290.094
287.647
289.232
288.226
287.784
289.526
296.231
287.443
291.065
300.8
287.409
298.116
286.899
291.14
290.018
293.725
292.322
292.274
287.878
299.702
287.554
287.973
294.898
288.89
289.467
289.058
288.423
300.163
289.657
287.681
296.237
288.011
289.174
289.749
289.81
287.795
290.897
289.011
292.533
289.254
287.923
291.211
292.083
287.86
288.317
287.001
287.838
287.598
287.881
292.559
287.434
292.468
295.261
287.437
288.596
299.692
292.321
288.43
284.013
294.859
288.002
288.079
287.657
287.851
287.07
289.28
288.328
288.069
288.715
287.772
292.631
287.75
298.571
302.057
295.403
287.919
287.623
289.314
300.92
288.129
288.496
288.153
287.086
288.786
289.082
290.175
285.351
287.449
287.458
301.586
298.924
288.563
287.932
287.663
295.016
295.77
292.31
294.18
295.219
291.713
300.805
290.091
297.716
301.702
291.109
287.264
287.391
287.32
287.661
293.854
295.241
299.665
290.655
295.526
286.964
288.174
295.876
288.029
289.337
289.258
286.747
295.564
291.051
287.812
287.169
294.991
287.519
292.347
291.824
291.405
289.26
299.51
288.326
289.686
299.823
287.984
287.165
289.721
287.435
287.771
290.055
290.931
289.325
287.931
301.086
293.288
287.938
300.764
287.366
288.358
287.71
296.269
291.292
306.362
290.569
296.222
290.943
300.866
300.665
287.33
287.928
287.779
289.036
304.987
291.619
300.804
288.298
287.721
288.309
288.199
288.08
287.532
287.824
287.705
292.569
289.077
286.468
287.832
288.889
287.62
288.088
287.108
287.135
292.315
290.154
289.279
288.656
290.565
290.402
287.532
295.126
291.903
289.964
289.759
300.088
293.737
294.528
293.271
295.955
287.899
289.352
298.741
288.913
288.793
287.545
288.331
287.885
288.075
295.142
298.289
299.519
289.566
288.122
288.145
293.205
290.777
290.345
294.16
291.456
287.346
288.259
293.135
287.858
298.965
288.416
287.711
298.445
299.3
288.002
287.607
287.52
286.972
287.076
294.504
287.07
292.009
287.009
298.194
289.795
287.716
293.233
288.414
288.083
289.471
294.973
287.631
292.123
296.248
296.007
287.354
289.666
287.028
285.966
287.73
287.592
288.119
295.936
290.765
287.388
295.271
288.146
287.503
290.286
294.343
289.251
291.976
288.413
290.031
291.808
291.479
292.677
290.914
289.491
287.637
290.092
306.174
286.429
292.134
296.032
286.646
295.598
289.599
296.933
290.775
291.73
293.62
288.709
296.817
288.958
289.506
290.667
287.678
287.706
296.874
290.753
296.716
290.03
291.249
289.625
287.706
289.002
290.566
287.813
289.301
289.396
297.087
292.029
287.235
294.86
294.065
287.55
291.508
307.602
287.862
302.615
287.448
288.854
289.034
287.682
287.047
297.274
290.266
295.211
300.51
291.127
290.122
288.316
288.326
287.877
287.626
294.428
287.89
298.973
300.395
289.59
291.879
303.115
286.934
287.401
287.475
302.081
300.467
300.783
286.931
287.299
289.033
293.031
290.909
290.696
304.922
288.799
287.633
292.736
290.999
287.857
291.227
287.796
290.03
294.324
300.605
299.065
291.005
290.427
288.446
295.821
290.033
287.609
288.03
287.169
287.469
288.131
290.551
290.911
287.373
295.299
287.173
288.311
287.896
293.676
289.79
296.329
289.641
293.75
289.805
291.606
291.778
289.076
287.509
298.859
287.5
291.176
287.738
302.191
288.982
288.895
287.728
300.457
286.952
287.64
292.863
292.35
295.898
287.76
288.421
292.198
289.996
296.516
287.47
292.237
288.125
290.772
286.997
287.436
287.37
288.939
287.419
287.441
287.631
298.809
287.009
287.174
301.178
288.397
287.212
294.759
300.108
288.201
287.595
299.425
300.185
288.352
287.014
300.701
287.461
290.233
289.115
300.759
301.91
287.003
290.28
287.947
287.248
309.697
289.184
290.632
289.881
288.705
287.893
288.119
284.93
291.136
298.874
301.014
295.774
303.928
292.836
295.194
293.518
289.772
290.669
295.004
288.291
288.024
290.459
292.421
287.717
290.907
287.934
288.485
290.373
292.533
288.21
288.723
291.434
293.24
290.148
292.413
287.363
287.575
288.11
288.079
289.106
288.222
287.768
299.66
288.181
287.663
290.274
287.684
287.29
288.186
306.454
287.142
290.375
287.807
291.267
286.613
288.518
287.828
289.528
288.638
288.333
288.707
301.002
297.736
289.307
293.604
287.545
287.284
295.249
289.008
290.164
287.223
289.5
295.549
291.138
287.14
288.546
288.805
288.655
292
295.94
300.755
289.756
290.819
304.681
287.177
299.049
287.426
291.39
291.759
292.272
301.089
287.317
290.839
289.345
287.093
287.428
292.315
287.614
289.646
288.392
287.53
300.514
297.409
287.891
301.589
290.355
288.038
287.815
288.397
287.881
288.408
288.06
297.982
296.604
287.376
291.628
288.938
295.93
300.974
289.115
286.867
299.188
287.579
299.054
287.345
287.679
287.151
289.162
288.501
288.173
299.758
290.326
300.01
289.838
302.079
296.542
288.153
290.651
289.064
287.284
299.801
303.757
294.088
287.706
289.769
288.042
288.022
301.29
287.053
288.579
287.682
290.898
297.945
298.893
288.694
300.391
290.426
289.305
291.35
300.747
288.218
287.609
289.636
289.664
297.422
299.067
287.785
300.314
287.508
290.913
288.292
288.077
298.223
296.881
290.394
289.116
287.074
291.776
287.762
290.769
296.904
298.679
299.851
287.548
298.495
300.359
290.913
292.277
287.623
288.038
294.56
294.242
298.367
298.264
297.359
297.397
301.239
301.454
288.089
287.249
287.382
287.736
297.103
296.393
290.125
297.553
288.202
300.516
299.204
288.746
296.955
310.157
287.999
289.353
294.066
297.923
295.776
288.483
288.755
288.084
292.318
290.55
288.781
303.563
288.273
287.536
289.032
287.564
300.885
295.831
287.808
288.611
288.786
287.036
288.617
292.408
295.138
287.738
287.645
287.091
290.728
297.707
289.066
288.936
288.185
300.171
296.084
305
291.869
293.386
287.542
287.774
287.231
290.893
302.85
289.259
296.712
287.973
294.675
287.827
287.069
295.807
290.806
288.593
292.847
295.801
288.94
287.25
290.732
298.486
301.178
298.139
295.17
293.702
293.981
300.979
291.756
287.903
299.842
288.872
299.314
291.103
301.385
301.386
289.714
287.975
289.985
289.898
289.521
292.086
287.333
297.569
287.35
289.185
291.585
287.724
288.28
287.978
293.55
291.286
293.605
296.88
297.466
295.186
293.586
291.083
290.273
287.48
297.392
286.483
287.835
287.834
287.389
288.976
292.652
288.081
293.301
287.424
286.974
291.763
292.883
300.613
299.077
288.019
288.053
295.978
287.107
288.026
287.798
287.979
304.373
288.439
306.093
292.675
287.09
308.784
287.257
292.292
287.51
284.059
286.97
290.587
299.366
288.185
288.007
287.688
299.005
297.676
300.544
291.206
295.734
294.898
287.867
297.663
294.543
286.961
291.397
286.394
292.387
287.091
287.139
287.628
287.335
299.524
284.621
287.96
301.858
300.083
290.594
287.839
297.175
292.206
288.829
295.405
288.137
289.654
287.108
291.071
291.626
289.198
289
305.708
287.74
287.633
300.58
290.52
292.318
296.062
288.446
296.956
299.427
287.775
287.168
287.469
287.777
291.827
289.412
290.708
295.957
290.645
287.453
290.856
295.379
288.628
287.907
288.296
289.169
300.724
297.192
293.389
296.874
294.382
290.758
288.135
297.563
287.345
288.879
292.464
290.43
287.656
300.253
290.573
292.769
290.939
300.325
287.355
287.872
288.737
286.96
289.624
290.519
288.356
288.314
288.022
292.387
291.154
287.196
287.137
291.711
301.008
295.621
294.993
287.477
294.548
291.772
290.164
289.553
287.39
287.936
286.69
287.732
303.137
300.215
289.747
287.431
295.383
290.899
292.696
288.153
298.527
296.022
287.718
287.475
288.567
287.311
296.751
291.737
287.181
296.723
296.749
288.956
289.05
289.28
287.79
310.536
287.469
287.314
295.694
287.119
289.871
287.616
288.804
287.288
297.578
287.34
291.863
295.039
288.577
293.896
289.279
294.115
301.024
288.55
287.761
300.537
287.219
288.912
289.108
294.262
289.31
287.091
303.003
287.929
290.044
287.444
288.724
294
287.552
286.944
287.554
289.415
286.973
288.531
288.037
294.159
294.329
287.77
298.938
298.912
288.463
300.166
288.527
291.692
289.569
289.677
297.801
288.355
288.608
295.403
293.933
287.081
290.125
299.785
296.913
288.866
296.756
296.558
287.634
295.072
288.559
288.448
293.325
298.973
292.244
300.535
287.022
292.34
290.455
288.544
287.71
290.026
289.988
288.53
290.329
287.92
296.848
290.369
292.074
292.258
294.614
299.688
287.435
289.37
287.285
290.869
292.209
292.032
287.704
288.856
287.259
287.354
288.394
288.028
289.859
287.794
297.951
292.8
288.789
288.04
288.352
290.607
293.329
291.229
304.846
287.69
287.32
293.135
303.86
287.945
287.343
287.477
308.071
287.404
289.875
287.084
299.337
291.606
284.038
300.207
291.997
292.507
301.354
300.807
287.406
302.848
287.194
299.391
287.866
290.655
286.723
287.547
303.889
292.32
289.72
300.077
290.107
290.855
293.365
292.138
301.171
296.754
287.267
288.977
288.924
295.853
301.504
287.436
288.381
287.888
292.214
287.214
299.218
287.682
288.649
287.713
291.459
287
290.902
287.801
286.784
295.744
299.719
287.978
291.672
287.323
287.018
292.516
290.743
290.821
288.524
287.846
288.138
292.212
299.075
290.255
288.64
288.954
294.465
287.528
292.706
287.309
288.246
290.846
288.36
289.211
292.309
300.267
290.786
300.408
290.687
287.728
288.26
297.799
287.625
287.289
289.203
299.528
300.152
287.653
287.217
286.853
290.23
286.999
287.755
299.108
288.734
291.771
287.597
292.176
303.277
288.127
287.086
300.243
300.192
299.595
289.273
288.144
287.892
294.307
289.105
287.798
288.589
294.641
287.451
289.875
304.064
296.621
296.578
300.532
289.79
292.09
291.997
291.069
287.446
297.332
287.151
289.496
287.912
303.263
301.048
300.909
287.751
289.57
287.309
287.835
296.672
287.876
291.425
289.843
287.217
290.019
292.297
290.095
293.996
288.208
287.151
288.241
286.62
286.948
296.978
289.553
288.897
287.706
288.212
287.252
298.229
296.739
287.793
295.864
287.062
292.765
294.18
292.698
297.042
293.535
294.607
287.152
287.769
295.912
295.501
299.951
299.751
289.906
288.299
293.758
287.528
288.605
288.432
289.583
295.939
285.006
287.801
287.364
287.436
292.022
287.359
291.878
302.661
287.064
287.681
297.064
287.722
287.97
309.855
287.591
286.963
287.661
288.876
290.375
287.855
287.59
286.428
287.131
287.05
294.831
288.409
288.099
293.237
287.925
291.782
288.171
287.016
297.364
288.633
293.245
294.38
299.799
287.406
287.922
287.556
293.082
289.96
287.417
288.046
287.664
287.093
287.3
300.55
287.732
288.104
300.403
297.134
290.974
287.674
288.43
287.435
296.56
300.718
287.033
302.108
289.077
300.461
289.232
288.009
287.989
287.887
287.662
287.181
291.214
299.793
290.231
295.618
301.534
298.934
290.612
290.995
288.241
287.826
287.5
288.398
289.633
298.337
289.678
287.721
291
289.278
300.199
303.56
307.402
287.396
287.546
287.271
291.836
287.273
290.025
288.057
287.502
288.182
286.786
289.804
287.698
293.543
290.921
289.686
287.168
296.731
286.523
293.632
293.62
297.163
297.551
302.505
299.859
287.598
291.369
287.694
289.164
292.228
287.245
289.777
296.762
288.515
294.195
288.039
299.076
287.438
289.493
287.76
289.845
288.556
287.478
292.437
287.778
292.938
295.998
287.208
294.775
292.777
290.601
290.722
300.939
287.686
302.136
287.208
289.523
302.725
292.55
293.049
287.581
298.135
287.717
299.755
289.451
286.982
290.01
287.739
299.588
287.733
290.673
287.59
294.163
293.809
297.839
297.825
292.842
294.295
291.48
290.659
288.842
293.055
289.252
289.573
296.138
287.018
293.235
293.514
300.351
289.968
287.876
287.798
300.591
299.754
288.13
298.789
292.442
299.309
287.152
293.392
298.694
287.573
292.719
300.857
287.759
291.614
295.835
288.902
306.004
288.386
300.825
287.9
287.086
290.393
299.37
291.59
294.187
298.318
298.209
294.118
295.764
294.331
290.675
296.19
288.095
287.807
287.701
287.315
287.679
286.954
291.635
287.125
291.332
292.473
287.769
289.333
292.477
287.671
292.33
296.111
294.584
296.347
292.981
297.017
292.011
287.051
295.22
287.793
295.221
287.484
286.217
288.73
287.43
291.155
286.931
288.465
293.012
296.739
295.795
294.357
293.685
290.989
287.628
288.385
291.494
291.25
292.916
291.285
287.023
287.235
287.744
289.93
295.762
288.85
291.362
288.863
288.196
292.651
289.722
287.127
296.185
288.102
287.761
287.148
287.67
288.924
287.345
287.311
288.843
299.184
288.631
299.429
294.541
294.801
286.651
287.463
287.718
289.658
287.189
287.248
287.427
301.581
287.071
288.256
290.875
293.314
287.37
294.212
287.836
286.898
287.048
295.736
287.248
287.878
288.131
298.445
295.845
288.139
287.094
287.221
300.481
286.439
288.025
295.772
289.882
291.947
292.192
290.028
291.886
290.058
286.915
286.238
286.848
296.848
295.743
294.804
288.616
287.865
290.671
301.035
286.86
286.187
300.673
292.771
287.024
299.337
292.602
298.617
295.84
296.785
287.339
288.724
303.021
287.74
287.364
293.657
293.815
297.501
297.688
302.971
293.426
296.725
287.342
293.306
299.898
287.78
287.117
297.002
292.385
287.104
287.387
287.571
287.764
287.613
290.053
287.09
293.524
288.573
306.237
288.483
299.916
287.368
290.253
289.744
295.201
287.152
287.369
301.642
299.052
290.81
287.173
299.685
291.547
298.688
287.439
287.431
287.748
287.398
288.82
289.04
289.895
288.422
288.215
287.895
287.372
289.593
287.504
297.831
287.308
287.361
287.341
301.048
287.004
292.667
287.689
301.842
288.637
288.29
296.743
291.193
287.097
287.375
287.653
287.187
291.312
288.281
296.585
293.969
288.924
287.27
288.112
297.038
289.592
295.676
287.347
297.355
287.379
289.222
289.696
290.669
296.954
299.333
292.075
289.642
287.939
301.388
301.606
287.671
292.048
300.213
293.14
288.986
289.18
295.381
294.537
300.432
287.834
299.124
299.035
295.477
295.134
285.9
289.735
297.764
291.156
286.576
293.605
291.547
287.112
289.757
289.263
291.222
294.561
295.679
292.12
288.7
287.289
287.81
288.065
288.448
287.15
295.198
288.456
292.652
286.818
287.571
289.012
288.336
287.003
300.603
287.326
295.311
301.753
300.405
291.075
297.887
293.319
300.711
288.379
289.133
289.148
287.687
287.608
289.393
287.766
286.413
288.99
300.086
292.881
301.519
291.884
295.384
287.981
301.244
300.83
297.905
286.797
293.116
300.472
300.955
302.792
304.604
286.956
289.13
293.921
286.949
287.77
301.572
289.829
292.838
295.164
288.798
287.603
291.863
296.336
286.858
293.602
287.721
298.591
298.67
291.296
298.577
288.647
294.182
290.006
292.572
290.497
287.306
289.574
287.128
289.567
288.287
300.8
295.618
288.675
287.161
294.736
296.142
289.754
288.349
299.928
288.31
288.162
290.292
288.138
294.563
295.68
287.713
287.824
290.156
300.572
287.594
289.211
297.928
296.191
293.988
299.064
296.702
293.258
287.109
296.674
290.163
286.872
301.05
294.013
291.254
287.423
293.24
287.62
287.47
299.325
296.749
288.181
292.592
286.937
288.536
290.42
302.134
290.553
300.498
287.758
288.83
287.567
287.563
300.683
288.341
288.193
296.776
288.047
287.751
288.475
290.138
286.595
300.936
287.01
287.482
287.707
286.181
287.175
304.734
287.221
290.238
287.587
287.865
297.237
291.568
296.312
290.292
301.811
298.145
288.597
292.217
299.37
286.921
286.862
291.008
287.684
292.094
289.371
289.661
299.949
290.049
287.328
287.528
304.091
286.553
296.707
286.973
287.903
289.209
287.519
289.135
287.129
292.422
289.992
287.984
295.917
288.241
287.877
296.919
287.335
289.646
290.922
290.033
287.03
291.464
287.613
289.803
290.398
290.773
290.665
293.336
287.52
298.846
287.343
290.081
291.709
295.316
291.951
294.9
293.845
289.068
288.051
288.427
286.008
286.469
288.609
297.982
292.326
287.754
288.669
287.809
288.074
286.686
287.821
287.904
287.458
293.949
301.298
289.205
286.209
289.159
297.353
287.281
287.716
287.893
287.807
299.89
287.423
287.911
288.335
284.762
295.176
289.565
291.857
295.638
287.703
301.209
288.943
301.546
292.746
288.575
289.801
295.908
291.39
286.393
298.084
296.767
287.921
287.102
288.769
299.511
306.827
293.414
288.196
289.657
302.286
288.548
288.885
287.361
287.368
288.653
297.723
287.123
287.477
286.374
286.685
288.713
289.417
288.091
287.912
288.027
287.716
301.915
296.468
300.976
296.448
288.969
292.926
299.079
299.758
300.453
297.468
287.156
295.372
306.265
286.94
287.911
287.024
297.104
287.104
287.657
287.866
287.481
287.833
300.626
296.771
287.151
299.201
292.48
287.703
288.374
299.81
290.282
293.042
287.625
290.29
292.089
287.029
289.455
287.141
286.184
289.609
287.769
287.309
290.826
290.643
296.555
287.287
288.485
300.812
300.416
290.029
287.239
291.106
291.441
289.07
288.436
287.649
287.364
288.122
286.954
289.206
288.07
300.186
290.327
304.336
287.842
305.518
285.375
288.128
289.733
293.594
289.109
298.81
297.149
289.038
288.819
289.651
295.94
296.799
291.764
305.391
291.266
299.561
290.019
292.322
290.761
295.501
287.586
287.95
288.12
287.714
289.664
288.053
290.167
295.93
301.136
289.407
287.976
287.87
300.654
287.077
288.658
288.043
291.37
289.906
287.527
296.156
301.042
289.301
296.471
288.475
288.785
287.586
286.572
287.739
294.875
289.019
295.586
290.209
288.355
287.55
294.218
286.788
289.71
287.443
287.939
287.588
295.129
296.393
288.247
290.123
287.605
287.303
286.66
291.285
289.513
287.4
288.491
300.12
288.89
287.424
288.984
297.372
289.559
287.631
291.166
287.833
287.872
298.975
295.96
287.708
286.275
289.347
307.571
290.375
287.877
287.943
286.493
287.796
301.383
289.66
297.924
296.614
287.527
287.534
293.922
300.626
286.905
290.148
287.635
304.819
288.193
288.072
289.67
289.932
287.672
298.421
289.306
287.491
288.468
287.247
287.544
300.056
300.108
300.464
287.816
287.589
285.408
286.157
291.919
299.385
287.336
292.205
293.918
287.435
288.69
287.724
298.337
295.587
297.663
305.67
296.768
286.106
289.734
291.412
289.237
286.201
287.719
288.416
298.183
289.164
290.172
291.191
300.429
288.38
287.223
286.318
287.282
287.211
290.86
289.292
287.284
287.304
288.123
296.165
287.503
287.803
287.245
300.11
287.541
287.153
289.25
290.393
300.177
299.54
287.598
291
299.349
301.12
287.175
289.947
292.031
287.428
291.786
285.25
287.929
289.948
287.263
287.545
299.509
289.508
294.133
287.333
287.327
287.193
301.597
287.366
289.112
287.946
288.039
299.923
287.172
298.295
288.223
300.811
287.643
296.188
287.542
291.747
289.388
289.436
296.822
289.306
301.385
288.052
301.464
287.738
293.389
293.64
287.323
291.395
291.952
287.914
289.094
287.682
287.887
286.915
287.386
290.225
293.199
287.795
287.105
295.953
303.366
288.741
288.886
295.8
287.394
297.521
289.487
288.64
288.309
288.083
287.99
287.295
287.215
296.807
290.131
308.116
289.301
289.138
299.093
287.188
293.468
303.129
299.971
290.583
295.42
288.451
295.796
287.681
289.982
287.291
288.591
300.686
286.361
293.166
291.804
291.267
287.185
288.076
297.729
291.551
287.884
287.807
289.043
286.868
287.784
287.537
299.418
287.277
292.154
297.598
287.854
287.322
290.369
299.137
287.481
288.795
286.946
287.554
303.444
291.004
290.117
287.699
287.496
290.79
291.3
287.239
289.699
288.781
300.11
298.473
295.622
292.057
294.487
290.673
290.048
287.355
287.887
298.063
289.435
294.457
291.541
287.839
288.657
287.171
296.728
287.243
286.546
293.705
288.001
287.522
291.412
292.232
287.572
287.723
286.961
286.878
289.939
293.431
288.422
288.315
290.801
288.272
288.333
288.815
287.14
290.006
287.774
296.878
287.078
300.299
297.816
297.111
289.912
289.312
292.825
295.213
292.513
291.867
287.178
288.086
287.172
286.985
288.048
289.268
300.589
287.529
287.422
289.673
288.728
287.463
302.042
301.042
287.963
285.145
288.75
287.706
288.498
288.193
287.854
300.335
292.84
291.836
293.698
287.382
284.143
288.336
296.922
288.632
288.314
287.77
297.521
291.685
286.905
292.967
287.491
298.735
288.359
288.073
290.106
298.672
288.108
300.108
301.828
288.572
298.03
298.025
288.481
297.435
290.076
293.824
299.253
295.348
290.817
301.589
290.035
289.032
288.189
289.457
295.024
287.696
303.368
300.248
289.486
287.426
290.873
287.891
291.27
287.334
287.468
292.851
297.776
304.955
290.489
286.763
293.729
295.607
287.61
290.151
289.313
293.995
293.097
297.196
294.249
295.767
295.067
299.606
299.307
296.885
296.863
288.42
287.468
289.101
286.672
295.834
291.596
294.463
290.018
290.763
287.351
287.006
288.663
293.246
290.651
301.501
287.169
288.751
289.203
292.645
295.383
286.799
294.745
291.593
289.01
288.489
288.301
302.07
286.995
293.04
298.674
287.303
290.914
289.065
307.156
287.52
288.256
300.068
287.601
289.772
287.673
294.902
287.93
287.076
287.319
299.967
298.586
289.446
293.287
299.409
286.244
296.965
285.375
287.309
287.327
288.574
288.708
296.434
287.685
298.72
287.656
287.267
287.585
288.794
287.432
301.348
287.632
287.35
287.079
286.962
291.403
288.272
298.412
287.442
287.523
287.492
287.425
286.054
285.909
291.362
287.902
300.771
297.171
288.061
290.288
290.822
288.155
291.87
295.174
294.943
287.256
297.156
288.468
288.646
287.209
289.619
286.855
284.916
288.119
288.886
301.496
287.859
288.535
294.321
294.042
298.188
302.515
287.281
297.238
296.802
287.625
303.484
293.085
288.193
287.659
287.43
295.684
288.81
302.532