/*--------------------------------*- C++ -*----------------------------------*\
| =========                 |                                                 |
| \\      /  F ield         | OpenFOAM Extend Project: Open source CFD        |
|  \\    /   O peration     | Version:  1.6-ext                               |
|   \\  /    A nd           | Web:      www.extend-project.de                 |
|    \\/     M anipulation  |                                                 |
\*---------------------------------------------------------------------------*/
FoamFile
{
    version     2.0;
    format      ascii;
    class       volVectorField;
    location    "2000";
    object      U;
}
// * * * * * * * * * * * * * * * * * * * * * * * * * * * * * * * * * * * * * //

dimensions      [0 1 -1 0 0 0 0];

internalField   nonuniform List<vector> 
26307
(
(-0.00656062 -0.151743 2.33703e-24)
(-0.0623254 0.015869 -1.20336e-24)
(0.221225 0.0772739 -3.15819e-24)
(-0.0181871 0.0394549 1.15263e-24)
(0.00190009 0.00118254 0)
(-0.0237328 0.0273911 6.33324e-24)
(-0.04533 0.0754776 -2.67935e-23)
(0.0613458 0.148353 1.5334e-23)
(-0.0126923 0.00701159 -4.76584e-24)
(-0.0401472 -0.0828074 5.63354e-26)
(-0.156338 -0.172613 1.62321e-22)
(-0.149701 0.0635904 0)
(0.0565827 0.00598712 -6.89543e-24)
(0.1998 0.0846321 0)
(0.0288806 -0.0397795 7.04282e-25)
(-0.0139631 -0.0306831 0)
(0.0822928 0.0640977 5.44209e-24)
(-0.0211785 -0.0414584 3.97733e-23)
(-0.0816749 0.0123552 1.02374e-24)
(0.176558 0.118405 0)
(-0.0373074 0.0214435 4.32756e-25)
(0.191049 -0.020702 1.98706e-23)
(0.0217003 -0.00685639 -1.63101e-23)
(-0.00311264 0.0327865 5.64027e-24)
(-0.0440154 -0.0657227 2.672e-23)
(0.0563498 0.125478 -5.31308e-24)
(-0.053091 0.11392 0)
(-0.0291963 0.00906738 0)
(-0.0358925 0.0283929 -3.98279e-25)
(-0.0298927 0.0368632 7.72433e-26)
(0.028464 -0.0324439 0)
(-0.045995 -0.242117 0)
(0.0178349 -0.0349351 -2.59851e-24)
(-0.0364259 0.0661913 -5.2113e-24)
(0.0261581 0.0556719 0)
(-0.231592 -0.00908905 1.16943e-23)
(-0.0202757 -0.29896 0)
(-0.037664 0.00592719 1.05931e-24)
(0.0428166 0.00939051 -8.64407e-25)
(0.0453482 -0.0436695 0)
(0.0245962 0.0314214 -7.65378e-24)
(-0.0197873 -0.0738312 1.3102e-23)
(0.0355412 -0.0659646 -8.46412e-25)
(-0.0453046 -0.0537969 -1.59882e-24)
(-0.0785908 0.0264923 0)
(0.365892 -0.0113236 0)
(-0.109554 -0.0393404 1.35957e-23)
(-0.0142276 -0.364709 -3.02812e-24)
(-0.0360863 0.0695123 8.47762e-25)
(-0.0145484 -0.00482757 0)
(-0.0981858 0.0548213 0)
(0.0251575 -0.0322493 0)
(0.0415422 -0.135555 0)
(0.116438 0.0463677 5.25373e-24)
(-0.123841 0.0478037 -9.53068e-26)
(0.303464 -0.0761506 2.13435e-22)
(-0.0219059 -0.0178851 4.08011e-25)
(-0.0072536 -0.0264169 -2.33983e-23)
(0.0142048 -0.47173 -1.11564e-23)
(-0.151848 0.020015 -1.65981e-23)
(0.214346 -0.0030743 -1.21326e-23)
(0.0281259 -0.0261386 -2.8627e-23)
(-0.0134476 -0.0320485 2.09089e-25)
(-0.000516016 0.0214047 6.54954e-25)
(0.186982 0.121498 -4.76426e-24)
(-0.0457288 0.0568792 0)
(0.352234 -0.117058 4.93327e-23)
(0.033883 0.0120837 7.11252e-24)
(0.0275269 0.105699 1.20422e-22)
(-0.0235861 0.0953534 3.56601e-23)
(-0.065281 -0.0363415 0)
(0.055881 0.0558657 -7.51263e-24)
(0.0596761 -0.10305 -4.2034e-25)
(-0.0451752 -0.0293906 -2.78081e-23)
(0.00172222 -0.116693 6.849e-24)
(0.019 -0.331767 3.2522e-24)
(0.144607 0.0932187 0)
(-0.0639418 0.0245365 1.69471e-23)
(-0.00952804 -0.0621588 2.38373e-26)
(0.0260838 -0.00319296 0)
(-0.00210585 -0.0260614 0)
(0.104384 -0.0739869 0)
(0.00994145 0.028164 6.55417e-24)
(-0.0707632 0.190656 0)
(0.165346 -0.0327129 -2.62521e-23)
(0.000552009 -0.410606 5.30259e-24)
(-0.138544 0.0827593 0)
(-0.142358 0.0125539 4.37558e-23)
(0.0182517 -0.257781 -6.55061e-25)
(0.0131974 -0.0682236 2.32521e-23)
(-0.115452 -0.0707837 -4.25227e-25)
(-0.0478952 -0.0393342 1.08444e-23)
(-0.0260325 -0.00291239 -3.3791e-24)
(0.0635242 0.0357893 -5.48869e-24)
(-0.281131 -0.0770719 7.67904e-23)
(0.0734607 0.093332 4.2118e-24)
(0.00509133 -0.0020082 -9.31907e-24)
(-0.0236526 0.0326419 1.60209e-24)
(-0.0425681 -0.0500131 -3.89579e-24)
(-0.106866 -0.0501084 0)
(-0.00148295 -0.0110323 1.64429e-23)
(0.00758939 0.00508968 1.05061e-26)
(0.157467 -0.0701474 1.1333e-24)
(-0.0316893 -0.137619 9.57892e-24)
(0.0473569 0.0114632 1.17043e-23)
(-0.171736 0.029114 1.5684e-24)
(0.143151 0.022629 1.2622e-25)
(-0.0763503 -0.0916028 -2.53146e-23)
(0.136061 -0.040857 5.79181e-24)
(0.213508 0.0157071 5.7001e-25)
(-0.0495123 -0.0634171 1.37445e-24)
(0.0545724 -0.0656676 -2.34571e-23)
(-0.0705246 0.00143923 3.37946e-23)
(-0.0515609 -0.0383518 -5.02685e-24)
(-0.0245621 0.00588379 -7.06609e-24)
(0.0014415 0.0911015 -2.45459e-24)
(0.0534499 -0.0735367 8.23732e-24)
(-0.310429 0.0195621 1.24755e-23)
(-0.0400342 -0.303183 1.0646e-24)
(0.00880225 -0.160837 4.40926e-24)
(0.0356287 -0.193067 -2.25824e-24)
(0.0216451 0.0187939 4.30942e-23)
(-0.0166289 0.0659227 -3.27796e-24)
(-0.00143538 0.0346368 1.58908e-23)
(0.01065 0.0103135 0)
(0.000894263 0.0375195 6.67655e-25)
(-0.0836796 0.0436837 1.90501e-23)
(-0.308174 0.0151071 -1.74916e-24)
(-0.0107653 0.0882968 -1.67757e-24)
(0.00759946 0.0408996 1.29986e-24)
(0.0109669 0.0514261 -5.4173e-25)
(0.00635991 0.0373894 -3.97067e-24)
(0.052274 -0.0192988 -3.1532e-24)
(0.326949 0.018342 0)
(-0.147883 0.0975425 1.43231e-24)
(0.0156343 -0.146085 4.06507e-24)
(0.0315917 -0.468314 3.2259e-24)
(0.0388718 -0.183432 0)
(0.0777768 0.106822 1.34924e-23)
(-0.0588354 0.0260562 -8.55557e-24)
(0.0152044 -0.167982 -2.59468e-24)
(0.1555 0.106652 -1.50534e-23)
(-0.317563 0.106939 1.10016e-23)
(0.0392039 -0.0688511 -3.50778e-24)
(0.2503 -0.032232 3.14368e-24)
(-0.122462 0.220237 2.88551e-23)
(0.0132082 -0.491741 -1.80147e-24)
(0.054155 0.0233698 1.30967e-26)
(0.0314873 -0.0274597 0)
(-0.112213 0.00435523 -2.29726e-24)
(-0.048777 -0.111344 1.01886e-23)
(-0.499587 0.0677644 0)
(0.0413213 0.0282601 5.63284e-24)
(0.0314892 -0.242935 0)
(0.0410909 -0.0554661 6.42904e-24)
(-0.0405081 -0.0924405 0)
(0.0378425 -0.000181669 -4.95926e-24)
(0.515258 0.0764713 -7.59763e-23)
(-0.0251232 0.0326618 -3.41317e-24)
(0.0493608 -0.0141456 -1.32469e-25)
(-0.300841 0.0769604 0)
(0.0236849 0.0801472 -1.5632e-23)
(-0.433341 0.00303599 1.46614e-24)
(0.0279085 -0.276125 2.62889e-24)
(-0.125558 -0.0571304 -6.27569e-24)
(0.0915023 0.0426124 3.71247e-24)
(-0.0053283 -0.378566 -4.5027e-24)
(0.102286 0.063301 -6.56197e-23)
(0.0344283 0.0268393 1.3979e-23)
(-0.054042 0.164237 0)
(-0.0361951 -0.058874 -7.62141e-26)
(0.0339298 -0.0551897 4.15044e-24)
(0.171436 -0.130923 -8.22407e-24)
(0.0217289 -0.116291 8.28577e-24)
(0.0584716 -0.157443 -3.52047e-24)
(0.0483681 -0.00221013 2.48499e-24)
(-0.0330977 -0.123282 0)
(-0.0492838 -0.14629 6.88445e-24)
(-0.0427642 -0.0727913 3.18631e-25)
(-0.0516294 -0.0747899 0)
(0.635446 -0.104495 1.76175e-22)
(-0.516704 -0.0775369 4.15022e-22)
(-0.0401681 -0.135398 -1.98666e-24)
(0.0124613 0.00552242 0)
(0.0394669 0.00829679 0)
(0.213736 0.0142503 -8.74857e-25)
(0.220638 0.0858509 5.1749e-24)
(0.0610894 0.00859668 -1.5101e-24)
(0.0751805 0.0625606 -2.87061e-23)
(-0.0697494 0.0615328 -2.58231e-24)
(0.0682333 0.0722677 -1.93663e-24)
(-0.0284648 -0.0419447 -1.16252e-23)
(-0.00638819 0.012834 0)
(-0.0654168 -0.115865 -6.18606e-24)
(-0.119075 -0.0107036 -2.09294e-23)
(0.000659538 0.0353568 -4.17049e-23)
(-0.0519692 0.055568 -1.06739e-23)
(-0.0668796 0.0486922 -1.69485e-23)
(0.217859 -0.0148576 -2.54199e-23)
(-0.00744724 -0.309948 -2.00621e-24)
(-0.0325962 0.0445766 -2.74501e-23)
(0.112012 -0.0817775 0)
(0.375942 0.0124704 -3.67274e-24)
(-0.00376198 0.0617117 3.97933e-25)
(-0.0809168 0.0419745 -4.93042e-24)
(-0.64874 0.0222588 0)
(-0.0427996 0.013512 -1.59256e-25)
(0.0442666 0.0340524 0)
(-0.0673378 0.101958 4.42713e-24)
(-0.041864 -0.0527001 1.55745e-24)
(-0.410848 0.0132431 -7.8332e-24)
(0.09101 0.104959 3.60316e-24)
(-0.0357019 -0.0108322 6.5043e-25)
(0.00334863 0.0593073 -2.09758e-24)
(0.0472437 -0.0132233 2.73596e-24)
(-0.0317154 -0.258016 1.19201e-23)
(0.165839 0.0934401 -4.56673e-24)
(-0.065174 0.0935883 2.6628e-24)
(0.0425267 -0.0869119 8.11667e-24)
(0.052413 -0.000150586 1.20602e-23)
(0.048069 0.0859579 3.43463e-24)
(0.0276349 -0.00251336 6.54375e-26)
(0.0330655 -0.0713334 1.96976e-25)
(-0.0790743 0.100473 -4.54018e-24)
(0.024507 0.0615817 0)
(-0.0593337 -0.0290376 0)
(-0.00512674 -0.0692224 4.13164e-23)
(-0.0416642 0.0872509 -3.71893e-24)
(-0.0490419 0.0239777 0)
(0.0743282 0.0454155 7.10528e-25)
(-0.049857 0.0436649 1.16533e-24)
(0.120378 0.0097673 -5.05254e-25)
(0.0146879 0.0144415 -2.24601e-23)
(0.230671 0.0871317 -1.94439e-24)
(-0.0207722 0.00230467 5.79366e-25)
(-0.0435476 0.0179584 -7.08461e-25)
(0.0135299 0.0281453 1.08e-23)
(-0.0498196 0.00846078 3.32945e-24)
(-0.0313502 -0.0335171 1.3667e-23)
(0.30072 0.0336395 -1.10917e-24)
(0.0282359 0.0633356 2.18393e-24)
(0.0187382 -0.00983234 2.04896e-24)
(-0.046115 0.0298297 1.38176e-24)
(-0.0165662 0.0260902 1.42758e-24)
(0.0498759 0.0990569 7.57551e-24)
(-0.0244225 0.0619597 2.09469e-23)
(0.128344 0.120948 -2.70187e-23)
(0.0361173 -0.460604 0)
(0.0617901 0.096207 3.40462e-24)
(-0.0424783 -0.00114998 -2.75128e-24)
(-0.354481 -0.189928 -1.14317e-22)
(0.041502 -0.0605571 -3.01054e-25)
(0.00252039 0.030864 5.45408e-25)
(0.00656282 0.0488943 0)
(0.00591986 0.0578129 -3.43564e-25)
(0.000532519 0.0333347 0)
(0.00363967 0.0388673 -1.34989e-24)
(0.00560278 0.0616356 0)
(0.0199827 0.072728 0)
(-0.0205331 0.0812036 -1.63729e-24)
(0.175316 -0.0722714 -9.67069e-24)
(-0.029073 0.05133 3.24313e-24)
(-0.00565257 -0.00550251 -1.31873e-23)
(0.000484987 -0.033926 -2.01187e-23)
(-0.0370341 -0.13733 -2.47844e-24)
(-0.00854716 0.0064516 3.20297e-23)
(-0.303263 0.105204 2.66991e-22)
(0.0141316 -0.501421 1.50463e-24)
(0.00569575 0.0283182 0)
(-0.0221267 -0.0752163 0)
(0.0261783 -0.489861 6.29193e-24)
(-0.0444729 -0.184476 -8.71357e-25)
(0.0889374 -0.0827139 -3.42214e-24)
(0.401804 0.0111318 -5.7177e-24)
(-0.0322313 -0.0201488 -4.34302e-24)
(-0.0306065 0.0151119 -7.97556e-24)
(-0.0159642 0.0331704 5.83676e-24)
(-0.0200674 -0.00532132 1.32187e-24)
(-0.0420291 -0.0819851 -2.28666e-23)
(-0.101391 0.0513979 -4.28374e-24)
(0.160377 0.122335 4.65869e-24)
(-0.149011 0.112071 0)
(0.19203 0.167987 -9.9739e-26)
(0.016517 0.030575 0)
(0.489358 0.0195698 -1.72281e-23)
(-0.114663 0.0743885 0)
(-0.525401 -0.0364473 6.66966e-23)
(0.033514 -0.0626274 2.4284e-24)
(0.0708296 0.0733127 -4.64442e-24)
(0.0335569 -0.455172 -5.62374e-24)
(-0.0776549 0.00391954 0)
(-0.0311378 0.0275399 -8.13965e-24)
(-0.00167854 -0.203108 1.20226e-23)
(-0.0210491 -0.481307 0)
(-0.0234353 -0.460977 1.84751e-24)
(-0.0516791 0.0859255 0)
(0.0503907 0.0142537 -1.32812e-23)
(-0.0564213 0.0191492 0)
(-0.0196134 -0.50907 -1.48067e-24)
(0.0353919 0.0960746 2.68255e-24)
(-0.0541026 0.0946725 0)
(-0.340904 0.0346533 -1.48386e-23)
(-0.0249785 -0.404897 1.8558e-24)
(-0.0053914 -0.489765 -1.78762e-24)
(0.00670967 -0.00479265 7.59052e-25)
(-0.00108301 -0.00670867 4.73693e-24)
(-0.140176 0.0111281 -5.44096e-24)
(0.0482296 0.0419849 0)
(0.0333428 0.172957 -2.74924e-23)
(0.0439236 -0.0118852 0)
(-0.0034388 -0.294839 0)
(0.0344316 0.100611 -2.81935e-23)
(0.326297 -0.0438172 3.15636e-23)
(0.0438139 -0.0101453 -2.18404e-25)
(0.12537 0.00863401 -1.51638e-24)
(0.0472622 -0.0445042 4.44054e-25)
(0.0411191 0.051677 -1.84287e-25)
(-0.202383 0.0846833 7.13202e-24)
(-0.0170335 0.0419957 4.49857e-24)
(-0.105639 0.0605188 9.21648e-24)
(0.0831745 0.0803317 -8.21307e-24)
(-0.089373 0.099149 -3.38243e-24)
(0.304234 -0.0121008 0)
(0.205775 0.114702 -1.67834e-23)
(0.0101143 0.075649 -3.32701e-23)
(-0.0285129 0.0394401 -4.28662e-25)
(-0.0200907 -0.0215325 9.69715e-25)
(0.0936686 0.130792 -5.01662e-24)
(0.303022 -0.121805 3.80641e-23)
(0.0844775 0.0907623 8.85993e-24)
(-0.0210142 -0.233521 9.83607e-25)
(0.04194 0.039802 8.39094e-24)
(0.00941589 0.00151492 1.39993e-22)
(-0.0219759 -0.490819 1.65959e-24)
(0.100724 0.0772254 1.43924e-23)
(0.00097471 0.0618696 0)
(-0.0665849 -0.116164 3.35411e-24)
(0.0574451 -0.0157189 3.26906e-24)
(-0.0354392 -0.161063 6.7393e-24)
(0.0804906 0.117192 1.26226e-23)
(0.0355998 -0.173171 5.66971e-24)
(-0.0250136 -0.00911041 5.16323e-24)
(0.0721128 -0.112454 0)
(-0.026964 -0.00195043 -2.42954e-25)
(0.0169263 -0.0388437 1.10412e-23)
(0.00581045 -0.532674 -7.38738e-29)
(0.0959474 0.123527 1.04674e-23)
(-0.0257044 0.0697951 1.2416e-23)
(-0.0858991 0.114791 -1.16928e-23)
(-0.0419456 0.0958433 7.84958e-24)
(-0.0168148 -0.53018 6.91435e-25)
(0.00168732 -0.0437782 0)
(-0.0116212 -0.0847028 1.05615e-23)
(0.00588428 0.00949438 -1.37136e-24)
(-0.0705342 0.110067 1.40936e-25)
(-0.0255199 -0.440726 4.33978e-24)
(-0.059029 0.0082761 1.13161e-24)
(-0.00784451 -0.0210096 1.60357e-23)
(-0.00231364 0.0683389 -5.46582e-26)
(0.0885006 0.0777933 -3.10276e-25)
(-0.109814 0.0924699 -1.74141e-25)
(-0.0528009 -0.0106934 0)
(0.12681 0.130863 -3.79304e-23)
(0.350599 0.0027917 0)
(-0.142215 0.0128531 1.63052e-24)
(0.12524 0.0120148 -1.71336e-25)
(-0.0178737 -0.663531 8.77567e-24)
(0.097275 0.132918 5.67985e-24)
(-0.0557723 0.00840558 -8.36396e-25)
(-0.089864 0.11938 -2.42691e-24)
(-0.115516 0.120333 0)
(0.117617 0.244061 -2.09295e-23)
(0.069858 0.00444944 5.85257e-24)
(-0.169221 0.116792 7.74432e-24)
(-0.0942053 0.0758119 -8.86441e-25)
(0.0450924 -0.0762304 -1.40358e-24)
(-0.105131 -0.0561459 0)
(-0.028126 -0.269841 -3.59702e-24)
(0.0716781 0.0291575 1.04963e-23)
(-0.0232209 -0.00523645 4.09184e-24)
(-0.0535729 -0.0350778 -8.40445e-25)
(0.0067825 0.0109242 0)
(0.00983211 0.0349106 6.06281e-24)
(-0.000132382 0.107047 6.75141e-25)
(-0.0132011 0.0435243 0)
(-0.0452526 -0.217931 4.58222e-25)
(0.0510155 -0.413813 0)
(-0.0343638 -0.204676 -6.56787e-24)
(-0.00784685 0.107462 -2.93289e-24)
(-0.131072 -0.0590637 6.11955e-24)
(0.00329052 0.11957 3.05518e-24)
(-0.0191888 -0.514463 -8.72229e-25)
(0.223936 0.0761853 5.07083e-24)
(-0.248348 0.0905244 8.41771e-25)
(-0.0597418 -0.0822274 0)
(0.0239155 -0.268549 4.8046e-24)
(-0.0293177 -0.0510264 -1.5589e-23)
(-0.0733813 0.0176123 1.78186e-24)
(0.0794529 0.020328 -9.00525e-25)
(-0.0301692 -0.00496297 -4.74602e-23)
(-0.243764 0.0874812 0)
(0.026298 -0.0448524 -3.51475e-24)
(0.0570124 0.0109286 1.51236e-24)
(0.208212 0.112778 1.48399e-22)
(0.00601631 0.051775 0)
(-0.0712631 0.0392994 1.24482e-25)
(0.17309 0.0730904 3.84046e-24)
(0.0195293 0.0431211 -1.54397e-23)
(-0.0241973 -0.471752 -3.03006e-24)
(0.298525 0.0393075 1.26534e-23)
(0.00410739 -0.00535953 7.53441e-25)
(-0.255269 0.0968844 -2.12849e-24)
(-0.0999153 -0.0850783 5.25304e-24)
(-0.012232 -0.541901 4.91745e-24)
(-0.0287777 0.0822924 -2.85881e-25)
(-0.0464791 0.0125867 4.05341e-27)
(-0.10499 0.0389292 -1.27817e-24)
(-0.0135398 -0.0371162 -8.62788e-26)
(-0.0119616 -0.027951 1.52713e-23)
(0.166491 0.137286 -7.44365e-25)
(-0.00719027 0.00540357 -1.59024e-24)
(0.00118584 0.0601431 -2.1252e-24)
(-0.0568711 -0.094136 -2.06841e-23)
(-0.0122594 0.0505624 -4.97885e-24)
(0.075533 -0.143466 1.4484e-25)
(-0.00382485 -0.300538 1.30262e-25)
(0.488853 0.0588347 -1.43585e-23)
(0.0219134 0.0370956 3.46202e-24)
(0.0640058 -0.130689 -6.78986e-24)
(-0.0767424 0.017224 -4.48504e-25)
(-0.0386557 -0.0197692 0)
(-0.00064035 -0.701697 -7.86715e-24)
(0.148776 0.116513 -4.3065e-25)
(0.0217265 -0.40981 1.12936e-25)
(-0.035821 0.000298594 -1.71303e-23)
(0.0308065 0.0465434 -1.4434e-23)
(0.122551 0.00966847 4.00748e-25)
(0.0946227 0.135457 2.61803e-23)
(-0.014306 -0.543907 6.52538e-25)
(-0.017333 -0.515477 -5.17804e-24)
(-0.00245879 -0.0438467 7.16818e-25)
(-0.0879744 0.118544 -8.43435e-24)
(-0.145897 0.00900395 -2.13024e-24)
(-0.0349542 0.0452406 0)
(-0.0320905 -0.166796 -1.34702e-24)
(0.38225 -0.0124373 6.3226e-25)
(0.0278238 0.0392996 -2.34928e-24)
(-0.104831 -0.0808757 9.96832e-24)
(-0.106487 0.0564026 -1.30569e-24)
(-0.0668247 -0.0624409 1.88274e-23)
(0.0284196 -0.466989 9.37921e-24)
(-0.00446768 0.0158997 1.91274e-25)
(0.117886 0.132731 5.0308e-24)
(0.205057 0.068278 2.94739e-25)
(0.146215 -0.0587846 4.59385e-24)
(-0.146812 0.0440834 -3.15928e-25)
(0.0882725 0.0526178 2.71434e-24)
(0.304923 0.0185273 1.81898e-23)
(-0.0969912 0.0624674 -6.56994e-24)
(-0.0309661 -0.124055 -3.56284e-24)
(-0.126735 0.0261471 -1.36308e-23)
(-0.0499624 0.05844 0)
(0.102203 0.0166754 4.00009e-24)
(-0.115543 0.0862837 0)
(0.0947908 0.0722393 -3.6501e-24)
(-0.0335358 -0.179009 9.08828e-24)
(0.0507704 0.0550985 6.65525e-24)
(0.0120502 0.0620488 1.66524e-23)
(0.0784046 0.0753625 -2.60302e-23)
(0.0927338 0.0575682 2.63882e-26)
(-0.227448 -0.0262966 2.16604e-23)
(-0.0531504 0.0172386 -6.4423e-25)
(-0.0170728 -0.525741 -5.68191e-25)
(-0.0207469 -0.447808 -1.53463e-24)
(0.0775373 0.0889886 1.08624e-23)
(-0.0970443 0.103566 0)
(-0.285206 0.0291658 -1.25951e-22)
(-0.170276 0.01757 3.7803e-24)
(0.455377 0.0194894 0)
(-0.0611011 -0.0557179 -6.36699e-25)
(-0.0207885 -0.388618 0)
(0.0498259 -0.00651992 0)
(-0.0595481 0.0635587 2.38649e-23)
(0.0481049 0.00203038 -4.37389e-24)
(-0.124042 0.0306602 -1.5236e-23)
(-0.22283 0.0860949 4.81148e-25)
(-0.021284 -0.497504 -5.64052e-24)
(0.00807612 0.021678 5.89116e-24)
(0.0402719 -0.442197 0)
(-0.544587 0.0258429 1.84228e-23)
(0.0469782 0.073058 1.07201e-23)
(-0.0748365 0.0329346 0)
(0.247733 0.189977 -1.59572e-24)
(0.527581 0.0174346 -1.36044e-23)
(0.0251789 -0.0400669 1.2355e-23)
(0.131313 0.176621 1.61416e-23)
(-0.0230249 -0.425895 0)
(-0.0323839 -0.147205 7.02452e-24)
(-0.0177812 -0.0798935 -7.51045e-24)
(0.0340711 -0.0668524 4.78319e-24)
(0.0956436 -0.0945455 -8.71761e-24)
(0.0648627 0.0129628 4.99815e-24)
(0.0349288 -0.0630281 7.62973e-24)
(0.0046543 0.0445117 -1.30135e-23)
(-0.036367 -0.229144 1.06423e-24)
(0.0784373 -0.248409 2.79398e-25)
(-0.138507 -0.0561007 6.71519e-25)
(-0.342929 0.00109236 -3.24453e-24)
(0.056884 -0.000798932 -8.00227e-24)
(0.109082 0.135426 1.83675e-23)
(-0.00289304 0.0227443 -1.30486e-24)
(-0.000757071 0.0232654 5.49938e-24)
(-0.00187388 0.0334625 1.02054e-23)
(-0.00344173 0.0435035 -5.33345e-25)
(-0.100518 0.119749 -8.15198e-24)
(0.0345253 0.00664523 0)
(-0.0576248 -0.131 -3.5222e-24)
(-0.155808 0.110877 -2.45925e-25)
(-0.0120132 -0.233737 1.26476e-25)
(0.0508294 0.050489 3.99331e-24)
(0.00983921 -0.0152087 -4.23238e-23)
(-0.0540642 0.0438283 2.85999e-24)
(-0.0921858 0.0530608 0)
(0.0225061 -0.154395 0)
(-0.063198 0.0181694 0)
(-0.0324394 -0.00197065 9.91899e-24)
(-0.014427 -0.0498018 1.23851e-24)
(-0.018459 -0.469031 -3.1484e-24)
(-0.0423645 -0.0161843 2.4793e-23)
(-0.0459954 0.0318545 4.38472e-24)
(-0.192087 0.064158 0)
(-0.0185136 -0.500471 -1.5724e-26)
(-0.0214102 -0.27479 7.14046e-24)
(0.287886 0.0151898 5.36427e-26)
(0.01299 0.0377885 -1.48481e-23)
(-0.0275378 -0.43446 -2.00503e-24)
(-0.00971525 0.0405259 0)
(-0.0761869 0.0369012 -2.25096e-24)
(0.0579403 0.0701661 4.24507e-24)
(-0.0615351 0.0110462 -6.3842e-25)
(0.0401434 -0.0407975 1.05756e-23)
(-0.0229686 -0.480284 -2.86176e-24)
(0.750095 0.0171598 3.00622e-24)
(-0.0183635 -0.412145 3.14772e-25)
(-0.211182 0.0552638 6.97871e-25)
(-0.0310548 -0.260345 0)
(-0.00564051 0.085092 -9.69134e-26)
(-0.183523 0.0383327 3.046e-24)
(-0.363775 0.0034997 0)
(0.131234 0.102491 0)
(-0.0196475 0.0260731 -4.71304e-24)
(-0.0157107 -0.312973 -3.00474e-24)
(-0.0612085 0.0589238 -1.83435e-24)
(0.070406 0.0398741 2.79263e-24)
(0.355223 0.0251206 -1.15773e-23)
(-0.114886 0.0362109 -5.00631e-24)
(-0.111169 -0.0417064 0)
(-0.000834243 0.0742964 -1.19084e-23)
(-0.00702855 0.0620609 -8.45194e-24)
(0.0443702 -0.0725491 8.32894e-24)
(-0.136632 0.0779624 -5.51917e-24)
(0.116335 0.0656855 5.16811e-24)
(0.0648908 0.0407596 -2.67021e-23)
(0.39347 0.0159522 0)
(0.497288 -0.0256039 4.29198e-23)
(-0.0318879 -0.280027 8.82367e-24)
(0.0206533 -0.0581132 -3.98484e-24)
(-0.0935232 0.0564435 -3.09945e-24)
(0.198148 0.024905 4.14466e-25)
(0.0730997 0.0254335 3.38918e-24)
(0.0415633 -0.0706245 2.31676e-24)
(-0.0491437 -0.0822105 -1.18571e-23)
(0.00724082 0.00518838 5.26116e-24)
(-0.00502259 6.97151e-05 -1.19089e-24)
(0.0394397 0.0469034 1.4454e-24)
(-0.388601 -0.00841298 2.88002e-25)
(-0.000667937 -0.0484359 1.92351e-23)
(-0.0358367 0.163902 -1.64607e-24)
(-0.0144363 -0.540451 -1.4573e-24)
(-0.0925557 0.06292 4.21926e-25)
(0.0465048 -0.0239071 -1.66563e-23)
(0.123136 0.134904 -7.31423e-24)
(0.0147299 0.0316052 0)
(-0.155116 0.0182743 6.45473e-25)
(0.127393 0.00796603 5.47927e-24)
(-0.0260458 -0.452853 0)
(-0.112981 0.120564 3.35307e-24)
(-0.0298335 0.0411304 4.81056e-24)
(0.387465 -0.0250879 1.1388e-24)
(0.070333 0.0578105 1.04322e-23)
(0.320981 0.00549218 8.25347e-26)
(0.171647 0.120224 -5.1152e-24)
(0.13138 0.0132888 -1.51939e-24)
(-0.164397 0.0253325 -9.74342e-25)
(0.223523 0.0795264 1.31815e-24)
(0.0347581 -0.192258 2.10884e-25)
(-0.055211 0.100158 0)
(0.0924683 0.0658267 -2.21851e-24)
(-0.0282387 -0.045588 0)
(-0.0598635 0.00380557 0)
(-0.000877912 0.0749987 -1.118e-25)
(0.225509 -0.0534539 -1.68634e-23)
(0.197776 0.122829 0)
(-0.00646063 0.0289781 1.49847e-23)
(-0.0448894 -0.118738 -9.65696e-24)
(0.386637 0.00681077 3.34481e-24)
(-0.0231798 0.0388846 0)
(-0.012023 0.0301996 -2.95902e-23)
(-0.0101977 0.0539052 -1.59788e-24)
(-0.0109549 0.0619371 0)
(-0.0114058 0.0542102 -4.46441e-25)
(-0.011937 0.0507277 4.97932e-24)
(-0.0144209 -0.186865 -5.23488e-24)
(-0.46554 0.00647994 -2.34607e-24)
(-0.059385 -0.0174906 -1.66119e-23)
(0.0801239 0.0417108 1.48694e-23)
(0.11021 0.166166 -1.36933e-23)
(0.0128823 -0.240911 1.27239e-24)
(-0.409133 0.00186132 1.84222e-24)
(-0.00404107 0.0225194 6.01759e-25)
(-0.000956152 -0.490942 8.59595e-24)
(-0.0211927 -0.405596 -1.00267e-24)
(-0.0359185 0.0568997 -1.38926e-23)
(-0.0369051 -0.158775 -2.60797e-24)
(0.0539436 -0.00978979 0)
(-0.134535 -0.0420236 2.92671e-24)
(0.0751047 -0.0511327 1.75062e-23)
(0.0316412 -0.0868357 0)
(-0.0422633 0.0321001 -1.66672e-23)
(0.0422675 -0.0247747 -6.43995e-24)
(0.127899 0.132388 1.05562e-23)
(-0.0267067 -0.385921 5.31562e-24)
(0.0600015 0.0196002 1.22038e-24)
(0.0339173 -0.0603777 1.08704e-23)
(-0.1183 0.117612 1.75749e-23)
(-0.046101 -0.0221556 -1.94335e-23)
(0.015132 -0.244182 -1.9114e-24)
(0.190293 0.0737791 -1.60574e-24)
(-0.208082 0.0712276 -2.23839e-24)
(-0.0945926 0.0477192 1.62175e-24)
(-0.0366968 -0.0357781 -1.69445e-24)
(0.28447 0.0137313 -1.25375e-24)
(0.00491013 -0.349023 -2.72927e-24)
(0.012558 0.0269224 6.02503e-25)
(-0.160344 0.0649581 -2.19535e-24)
(-0.0158088 -0.517782 0)
(0.088374 -0.100635 0)
(-0.031363 -0.00825519 4.44317e-25)
(0.0542051 -0.0153813 0)
(0.313363 0.00459646 -5.37098e-24)
(0.147493 -0.0885293 -3.70266e-25)
(0.116625 0.0967852 3.80775e-24)
(0.265105 0.00587522 0)
(-0.0643097 0.0771509 6.75581e-24)
(-0.16528 0.0274296 3.1532e-24)
(0.029489 -0.0821294 4.29907e-25)
(0.0676756 -0.0997989 -5.94395e-25)
(0.00656585 -0.00886143 6.64637e-23)
(-0.435874 0.0645567 -7.26343e-25)
(-0.00817403 -0.0037919 -1.19338e-24)
(0.134477 -0.0544436 -9.02131e-25)
(0.0336042 -0.0483731 6.48863e-23)
(-0.151832 -0.0530155 -4.33493e-24)
(-0.031639 0.0259657 -6.42043e-24)
(0.0393556 -0.0430191 9.72429e-24)
(0.042333 -0.193269 -3.2403e-24)
(-0.540206 0.034095 0)
(-0.0247064 -0.0157291 -1.23239e-23)
(-0.0760572 0.00595045 -2.20823e-24)
(-0.0501433 -0.14552 9.59303e-24)
(0.010822 0.0159939 0)
(0.0414866 0.0281564 5.95641e-25)
(0.051725 -0.0667755 1.44065e-23)
(0.0501983 -0.0766252 1.75694e-23)
(-0.0558833 0.0577945 5.44221e-24)
(0.375537 0.00611456 2.53043e-24)
(0.053427 0.0684095 1.8007e-23)
(-0.0410586 -0.168665 0)
(-0.096627 0.0495256 2.27497e-24)
(-0.675821 -0.216064 0)
(-0.189645 0.119724 4.08788e-25)
(0.0354866 0.0764878 0)
(-0.0449374 -0.138983 -5.87026e-25)
(0.343059 -0.0164409 -1.0847e-23)
(-0.101572 0.0661553 -1.09377e-23)
(0.0211384 -0.0239389 -1.21907e-23)
(0.0157738 0.0182317 -4.35389e-23)
(0.130796 0.0161203 -3.66764e-24)
(-0.00905641 -0.564668 -7.48714e-25)
(0.0208799 -0.355397 1.4721e-24)
(0.535032 0.0184177 0)
(0.0386116 -0.0386083 -7.81106e-25)
(-0.0273878 -0.421522 0)
(-0.0322434 0.095809 2.26995e-23)
(-0.172349 0.0340351 2.63532e-23)
(0.0960913 0.0616901 -4.38646e-24)
(0.0183488 -0.0603305 4.2171e-23)
(-0.00585866 0.00930345 0)
(-0.202317 0.0504754 -2.7516e-24)
(-0.0388204 -0.0434107 4.94497e-24)
(-0.0178984 -0.353234 -3.35605e-24)
(0.0607131 -0.144741 1.19268e-23)
(0.0816201 0.038149 -3.69216e-24)
(0.305844 -0.00294211 7.60826e-24)
(-0.0317466 0.0183256 3.60451e-24)
(0.0632777 0.0455108 -9.64942e-24)
(-0.140655 0.119353 3.41488e-24)
(0.0669798 -0.00820741 -1.01725e-23)
(-0.0161442 -0.434894 -3.1399e-24)
(-0.0611346 0.00817427 9.97816e-25)
(0.0930638 0.086723 7.72835e-24)
(-0.0636922 0.112333 0)
(0.0598955 -0.0705831 0)
(0.0689203 0.018592 1.21114e-25)
(0.174324 0.0141355 -4.48308e-23)
(0.0711634 0.120715 4.7144e-25)
(-0.0674512 -0.052951 -8.21051e-24)
(-0.0117429 -0.555396 0)
(0.0234455 -0.196758 0)
(-0.0539803 0.0316496 -1.96984e-24)
(0.0560003 -0.127242 7.29014e-24)
(-0.193796 0.0467074 9.2982e-25)
(-0.0608738 -0.0852387 -1.04824e-23)
(-0.16293 0.0187233 -3.39077e-24)
(-0.045059 -0.140006 0)
(-0.016004 0.011729 7.43763e-24)
(-0.0543045 0.0186837 -1.32048e-23)
(0.106507 0.0991459 1.56595e-23)
(0.0607253 -0.00259539 -2.24401e-24)
(-0.0212336 -0.0118134 -3.35785e-24)
(-0.204416 0.0606243 2.68843e-22)
(-0.196504 0.0815244 -2.86241e-25)
(-0.15651 0.0180295 -3.63507e-24)
(-0.00974517 -0.551946 -3.34737e-24)
(-0.00464747 -0.194261 7.25973e-24)
(0.342677 0.233893 5.63277e-23)
(-0.0305223 0.0799798 -3.0545e-24)
(-0.468161 0.0139049 7.84025e-24)
(0.0749741 -0.0606776 -2.18986e-24)
(0.0557492 -0.00638412 5.51827e-24)
(-0.0290063 -0.38587 0)
(0.0833752 0.020082 2.98654e-24)
(-0.0476609 -0.198013 -2.06431e-24)
(-0.241045 0.0786355 1.94902e-22)
(0.0900341 0.0875233 4.769e-24)
(-0.115257 0.048011 3.74564e-24)
(-0.110851 0.101524 0)
(0.0195713 0.00393909 0)
(-0.0245484 0.00803476 5.72757e-25)
(-0.027554 -0.0190972 7.83363e-24)
(0.00596989 0.0148783 -2.28147e-25)
(0.736849 0.0120083 -3.80174e-24)
(0.223053 -0.0586527 5.83373e-23)
(0.105998 0.0750572 2.88536e-24)
(0.0421624 -0.309032 0)
(0.0412842 -0.00363253 -4.12836e-24)
(-0.0524283 0.00649001 9.0777e-25)
(-0.223635 0.0782024 -9.42275e-25)
(0.0698831 0.0163452 -7.42088e-24)
(-0.0138615 -0.093813 -1.02922e-24)
(0.0272853 -0.103053 -8.58914e-24)
(0.00137438 -0.502417 -3.9135e-24)
(-0.0149116 0.0422023 -3.22278e-24)
(0.134099 0.0170248 3.73614e-25)
(-0.168771 0.0272666 -1.06572e-24)
(0.111653 0.0363485 0)
(0.109082 0.0847109 5.13493e-24)
(0.281555 0.287659 -1.55057e-24)
(-0.0382755 -0.125759 3.24985e-24)
(0.051318 -0.399422 0)
(0.0220497 -0.164529 -7.10676e-25)
(0.0963249 0.0642544 0)
(0.0407939 -0.00735431 0)
(-0.0335856 0.0119977 -5.78355e-25)
(0.0834564 0.0518086 2.21306e-24)
(-0.204743 0.0479057 2.68165e-24)
(0.000261327 -0.03073 -3.42135e-24)
(0.338432 0.0170965 -1.2086e-24)
(-0.218512 0.0621517 0)
(0.0495541 -0.173298 -1.02264e-23)
(-0.0567118 -0.00317226 0)
(0.0327937 0.0394782 0)
(0.0615429 -0.173397 -1.46413e-24)
(-0.166864 -0.00074543 1.03352e-22)
(0.0374011 -0.0365447 4.5314e-24)
(-0.0674835 0.0329599 -3.9631e-24)
(0.0408422 -0.0588905 -3.42027e-24)
(-0.0982157 0.0248734 -3.48639e-24)
(-0.0765277 0.00795648 4.33571e-24)
(-0.0116094 -0.070353 -3.36923e-25)
(-0.0248736 0.0209667 -6.45987e-23)
(0.0361356 -0.170816 -1.61802e-24)
(0.0773551 0.0265467 -1.4946e-26)
(-0.0169336 -0.00476682 7.35246e-25)
(0.0297761 -0.1527 3.39156e-24)
(-0.0395562 0.00875249 -4.11937e-24)
(-0.214064 0.0213533 0)
(0.0618172 0.00334368 -3.72694e-24)
(-0.193837 0.037266 -5.89638e-24)
(0.126058 0.0147671 0)
(-0.0396395 -0.101131 -3.42537e-24)
(-0.0235405 -0.604684 -6.28599e-24)
(-0.17329 0.0285444 6.84277e-24)
(0.0461594 -0.0136813 1.46058e-24)
(0.0938202 0.0079598 0)
(-0.0448575 0.086613 3.03758e-26)
(0.0538442 -0.0144307 -7.0435e-24)
(0.0141919 -0.0158799 1.63362e-23)
(-0.0615593 -0.00955644 -4.1411e-25)
(-0.48688 -0.0257239 1.05929e-22)
(0.348087 -0.00782954 2.25383e-23)
(-0.0431903 -0.0525025 -1.51685e-23)
(-0.0294167 -0.403941 -4.23434e-26)
(-0.0235392 -0.62973 -3.67978e-24)
(-0.0612043 -0.0663847 -1.15569e-24)
(0.0838252 0.133303 6.1113e-24)
(0.0693347 0.0797476 3.59094e-24)
(-0.155989 -0.0493857 -3.66484e-24)
(0.0628735 0.0801887 5.5111e-24)
(-0.0405854 0.0192985 3.17105e-24)
(-0.078247 0.118409 0)
(-0.0404685 0.0780772 -3.50392e-24)
(0.0502773 0.0494179 0)
(0.128264 0.015255 9.94661e-25)
(-0.149447 0.013523 1.0391e-24)
(-0.0297181 -0.118112 -3.25567e-25)
(-0.0268108 0.0489353 -2.02612e-24)
(-0.0241528 0.0597144 3.60464e-24)
(0.0648226 -0.0862878 0)
(0.0765613 0.0377322 0)
(-0.0811038 0.039542 3.59536e-24)
(0.00203368 0.00627995 -4.05715e-25)
(0.00134669 0.0279044 5.60271e-24)
(-0.145881 0.115899 -1.31084e-24)
(-0.0316995 0.0173168 -6.3803e-24)
(-0.287905 0.0273577 5.05265e-25)
(-0.0115933 0.0424059 3.2762e-24)
(0.0550907 0.0710908 -2.05095e-24)
(0.0911327 0.0516209 -2.96987e-24)
(-0.0523103 -0.0723545 0)
(-0.0284069 -0.122767 5.43657e-25)
(0.0415498 -0.0666225 7.51007e-24)
(0.0626784 -0.378331 1.72877e-24)
(0.00147087 -0.0778017 -1.61548e-23)
(-0.144024 0.0795893 0)
(-0.0469818 -0.155051 0)
(0.0789245 -0.211499 1.10844e-23)
(-0.095481 0.00884626 9.9729e-24)
(0.0564121 0.131856 5.73592e-24)
(-0.0545314 0.114926 2.45497e-24)
(0.178427 0.0322 1.63471e-23)
(0.0464537 -0.0284144 -7.08263e-24)
(0.0363554 0.0891848 -6.5548e-24)
(-0.00129315 -0.174243 2.66992e-25)
(0.140906 0.044551 -3.18396e-24)
(-0.0188247 -0.286158 -1.44792e-23)
(-0.099482 -0.0580067 -9.37211e-25)
(0.0056414 -0.00395712 -1.52165e-23)
(-0.0231018 0.00960663 2.65908e-25)
(-0.364999 -0.00300829 0)
(-0.37371 -0.00543547 0)
(0.264996 0.00608613 -6.6691e-24)
(-0.179961 -0.100289 -4.95956e-25)
(-0.0216294 0.0390738 2.25795e-23)
(0.0261596 -0.0618612 -5.03009e-25)
(0.013433 -0.320275 -3.48596e-25)
(-0.0618133 0.017246 0)
(-0.0292579 -0.0207211 -4.16497e-23)
(-0.0127475 -0.532136 5.88262e-25)
(-0.00442991 0.0597342 1.69922e-24)
(-0.00162443 0.0409449 8.32872e-24)
(-0.00262764 0.0489201 2.63556e-24)
(-0.00323164 0.05105 -2.55542e-24)
(-0.00826702 0.0555987 0)
(-0.000141931 0.0356151 -4.66007e-24)
(0.00243816 0.0506239 -1.06514e-26)
(-0.00161533 0.045046 9.50361e-24)
(-0.220448 0.0688321 4.82795e-24)
(0.0483996 -0.108846 3.89067e-24)
(-0.0307236 -0.387503 0)
(0.0101824 0.0138773 -4.8856e-25)
(0.0444864 0.0447136 -6.3285e-24)
(-0.0637225 -0.0913533 0)