/*--------------------------------*- C++ -*----------------------------------*\
| =========                 |                                                 |
| \\      /  F ield         | OpenFOAM Extend Project: Open source CFD        |
|  \\    /   O peration     | Version:  1.6-ext                               |
|   \\  /    A nd           | Web:      www.extend-project.de                 |
|    \\/     M anipulation  |                                                 |
\*---------------------------------------------------------------------------*/
FoamFile
{
    version     2.0;
    format      ascii;
    class       volScalarField;
    location    "1000";
    object      epsilon;
}
// * * * * * * * * * * * * * * * * * * * * * * * * * * * * * * * * * * * * * //

dimensions      [0 2 -3 0 0 0 0];

internalField   nonuniform List<scalar> 
100
(
0.00010138
9.96186e-05
8.68344e-05
7.55084e-05
6.60646e-05
5.77458e-05
5.02091e-05
4.32304e-05
3.68863e-05
3.01412e-05
0.000130123
0.000125345
0.000100209
9.05793e-05
8.25123e-05
7.27318e-05
6.18549e-05
5.00818e-05
4.32002e-05
3.85897e-05
0.000154528
0.000157045
9.39297e-05
7.52831e-05
7.0366e-05
6.4333e-05
5.57231e-05
4.4659e-05
4.84897e-05
4.42703e-05
0.000177409
0.000185043
7.5937e-05
6.51104e-05
6.72803e-05
6.71721e-05
6.02438e-05
4.57852e-05
5.32187e-05
4.45779e-05
0.000201132
0.000164867
8.82827e-05
9.17908e-05
0.000105754
0.000109015
8.92617e-05
5.55237e-05
4.70132e-05
4.1005e-05
0.000221209
0.000159761
0.000130006
0.000151316
0.000152913
0.000131308
9.58097e-05
6.42683e-05
5.20896e-05
3.79759e-05
0.000247942
0.000185839
0.000137106
0.000128489
0.000124542
0.000121792
0.000125226
0.000137285
0.000138378
6.33629e-05
0.000287571
0.000237604
0.00021945
0.000242095
0.000268492
0.000288781
0.000309001
0.00034129
0.000301777
0.000191567
0.000478949
0.000523134
0.000696969
0.000955102
0.00121274
0.00134999
0.00129402
0.000769759
0.000407917
0.000252055
0.000292753
0.000375113
0.000444233
0.000528999
0.000616958
0.000668165
0.000610014
0.000520718
0.000424011
0.00031768
)
;

boundaryField
{
    movingWall
    {
        type            epsilonWallFunction;
        Cmu             0.09;
        kappa           0.41;
        E               9.8;
        value           nonuniform List<scalar> 10(0.000292753 0.000375113 0.000444233 0.000528999 0.000616958 0.000668165 0.000610014 0.000520718 0.000424011 0.00031768);
    }
    left
    {
        type            epsilonWallFunction;
        Cmu             0.09;
        kappa           0.41;
        E               9.8;
        value           nonuniform List<scalar> 10(0.00010138 0.000130123 0.000154528 0.000177409 0.000201132 0.000221209 0.000247942 0.000287571 0.000478949 0.000292753);
    }
    right
    {
        type            epsilonWallFunction;
        Cmu             0.09;
        kappa           0.41;
        E               9.8;
        value           nonuniform List<scalar> 10(3.01412e-05 3.85897e-05 4.42703e-05 4.45779e-05 4.1005e-05 3.79759e-05 6.33629e-05 0.000191567 0.000252055 0.00031768);
    }
    bottom
    {
        type            epsilonWallFunction;
        Cmu             0.09;
        kappa           0.41;
        E               9.8;
        value           nonuniform List<scalar> 10(0.00010138 9.96186e-05 8.68344e-05 7.55084e-05 6.60646e-05 5.77458e-05 5.02091e-05 4.32304e-05 3.68863e-05 3.01412e-05);
    }
    frontAndBack
    {
        type            empty;
    }
}


// ************************************************************************* //
