/*--------------------------------*- C++ -*----------------------------------*\
| =========                 |                                                 |
| \\      /  F ield         | OpenFOAM Extend Project: Open source CFD        |
|  \\    /   O peration     | Version:  1.6-ext                               |
|   \\  /    A nd           | Web:      www.extend-project.de                 |
|    \\/     M anipulation  |                                                 |
\*---------------------------------------------------------------------------*/
FoamFile
{
    version     2.0;
    format      ascii;
    class       volScalarField;
    location    "1000";
    object      G;
}
// * * * * * * * * * * * * * * * * * * * * * * * * * * * * * * * * * * * * * //

dimensions      [1 0 -3 0 0 0 0];

internalField   nonuniform List<scalar> 
100
(
708.492
707.683
706.964
706.328
705.774
705.314
704.96
704.718
704.587
704.541
709.243
708.47
707.771
707.152
706.617
706.172
705.824
705.575
705.419
705.343
709.941
709.182
708.498
707.892
707.369
706.934
706.59
706.337
706.174
706.092
710.573
709.821
709.145
708.548
708.033
707.604
707.263
707.011
706.846
706.766
711.133
710.385
709.714
709.122
708.612
708.187
707.849
707.597
707.433
707.356
711.619
710.873
710.204
709.614
709.107
708.684
708.346
708.096
707.934
707.86
712.029
711.283
710.614
710.024
709.517
709.094
708.757
708.508
708.347
708.275
712.365
711.616
710.944
710.352
709.842
709.418
709.08
708.831
708.67
708.6
712.628
711.874
711.195
710.596
710.082
709.655
709.316
709.065
708.904
708.834
712.825
712.056
711.365
710.757
710.236
709.804
709.462
709.21
709.048
708.976
)
;

boundaryField
{
    movingWall
    {
        type            MarshakRadiation;
        T               T;
        emissivity      1;
        value           nonuniform List<scalar> 10(712.898 712.109 711.408 710.794 710.269 709.834 709.49 709.237 709.074 709);
    }
    left
    {
        type            MarshakRadiation;
        T               T;
        emissivity      1;
        value           nonuniform List<scalar> 10(708.906 709.655 710.353 710.984 711.544 712.03 712.44 712.775 713.038 713.235);
    }
    right
    {
        type            MarshakRadiation;
        T               T;
        emissivity      1;
        value           nonuniform List<scalar> 10(704.509 705.331 706.089 706.767 707.361 707.867 708.283 708.61 708.845 708.988);
    }
    bottom
    {
        type            MarshakRadiation;
        T               T;
        emissivity      1;
        value           nonuniform List<scalar> 10(708.109 707.244 706.52 705.874 705.306 704.832 704.471 704.234 704.128 704.148);
    }
    frontAndBack
    {
        type            empty;
    }
}


// ************************************************************************* //
