/*--------------------------------*- C++ -*----------------------------------*\
| =========                 |                                                 |
| \\      /  F ield         | OpenFOAM Extend Project: Open source CFD        |
|  \\    /   O peration     | Version:  1.6-ext                               |
|   \\  /    A nd           | Web:      www.extend-project.de                 |
|    \\/     M anipulation  |                                                 |
\*---------------------------------------------------------------------------*/
FoamFile
{
    version     2.0;
    format      ascii;
    class       volScalarField;
    location    "1000";
    object      k;
}
// * * * * * * * * * * * * * * * * * * * * * * * * * * * * * * * * * * * * * //

dimensions      [0 2 -2 0 0 0 0];

internalField   nonuniform List<scalar> 
100
(
0.000116954
0.000115596
0.000105481
9.60974e-05
8.79077e-05
8.0364e-05
7.32098e-05
6.62584e-05
5.96061e-05
5.20981e-05
0.000138129
0.000171748
0.000155209
0.000148935
0.000142129
0.000132146
0.00011961
0.00010395
9.09746e-05
6.14274e-05
0.000154901
0.000232368
0.000174865
0.000157268
0.000154008
0.000147446
0.000134846
0.000114749
0.000112666
6.73167e-05
0.000169837
0.00028942
0.000177053
0.000167537
0.000173344
0.000173068
0.000158912
0.000127655
0.000126135
6.76282e-05
0.000184658
0.000273297
0.000201719
0.000213659
0.000232575
0.00023198
0.000195583
0.000134094
0.00010586
6.39646e-05
0.000196751
0.000262587
0.000244226
0.000265284
0.000257955
0.000221178
0.000167417
0.000118654
9.43764e-05
6.07743e-05
0.000212299
0.00026941
0.000218423
0.000198922
0.000182162
0.000166321
0.000157579
0.000158282
0.00015153
8.54945e-05
0.000234357
0.000295987
0.000272908
0.000278389
0.000287468
0.000292851
0.000297673
0.000306084
0.000266211
0.000178757
0.000329287
0.000480892
0.000579996
0.000711294
0.00083494
0.000900574
0.000868388
0.000558326
0.000326492
0.000214641
0.000237164
0.000279784
0.000313176
0.000351845
0.000389839
0.000411122
0.000386908
0.000348164
0.000303598
0.000250442
)
;

boundaryField
{
    movingWall
    {
        type            kqRWallFunction;
        value           nonuniform List<scalar> 10(0.000237164 0.000279784 0.000313176 0.000351845 0.000389839 0.000411122 0.000386908 0.000348164 0.000303598 0.000250442);
    }
    left
    {
        type            kqRWallFunction;
        value           nonuniform List<scalar> 10(0.000116954 0.000138129 0.000154901 0.000169837 0.000184658 0.000196751 0.000212299 0.000234357 0.000329287 0.000237164);
    }
    right
    {
        type            kqRWallFunction;
        value           nonuniform List<scalar> 10(5.20981e-05 6.14274e-05 6.73167e-05 6.76282e-05 6.39646e-05 6.07743e-05 8.54945e-05 0.000178757 0.000214641 0.000250442);
    }
    bottom
    {
        type            kqRWallFunction;
        value           nonuniform List<scalar> 10(0.000116954 0.000115596 0.000105481 9.60974e-05 8.79077e-05 8.0364e-05 7.32098e-05 6.62584e-05 5.96061e-05 5.20981e-05);
    }
    frontAndBack
    {
        type            empty;
    }
}


// ************************************************************************* //
