/*--------------------------------*- C++ -*----------------------------------*\
| =========                 |                                                 |
| \\      /  F ield         | OpenFOAM Extend Project: Open source CFD        |
|  \\    /   O peration     | Version:  1.6-ext                               |
|   \\  /    A nd           | Web:      www.extend-project.de                 |
|    \\/     M anipulation  |                                                 |
\*---------------------------------------------------------------------------*/
FoamFile
{
    version     2.0;
    format      ascii;
    class       volScalarField;
    location    "1000";
    object      nut;
}
// * * * * * * * * * * * * * * * * * * * * * * * * * * * * * * * * * * * * * //

dimensions      [0 2 -1 0 0 0 0];

internalField   nonuniform List<scalar> 
100
(
1.21429e-05
1.20722e-05
1.15319e-05
1.1007e-05
1.05276e-05
1.00657e-05
9.60725e-06
9.13976e-06
8.66882e-06
8.10448e-06
1.31964e-05
2.11798e-05
2.16356e-05
2.20399e-05
2.20338e-05
2.16086e-05
2.08163e-05
1.94181e-05
1.72424e-05
8.80026e-06
1.39747e-05
3.09436e-05
2.92986e-05
2.95684e-05
3.03364e-05
3.04141e-05
2.93685e-05
2.65359e-05
2.35604e-05
9.21247e-06
1.46329e-05
4.07405e-05
3.71532e-05
3.87986e-05
4.0195e-05
4.01316e-05
3.7726e-05
3.20327e-05
2.69062e-05
9.23375e-06
1.5258e-05
4.07735e-05
4.14821e-05
4.47595e-05
4.60336e-05
4.4428e-05
3.85693e-05
2.91465e-05
2.14529e-05
8.98016e-06
1.57497e-05
3.88437e-05
4.12918e-05
4.18581e-05
3.9164e-05
3.35301e-05
2.63288e-05
1.97155e-05
1.53893e-05
8.75335e-06
1.63602e-05
3.51507e-05
3.13173e-05
2.77167e-05
2.39796e-05
2.04418e-05
1.78461e-05
1.64242e-05
1.49339e-05
1.03821e-05
1.71891e-05
3.31842e-05
3.0545e-05
2.88111e-05
2.77006e-05
2.67281e-05
2.58085e-05
2.47058e-05
2.11352e-05
1.50122e-05
2.03752e-05
3.97855e-05
4.34389e-05
4.7675e-05
5.1735e-05
5.40693e-05
5.24479e-05
3.64471e-05
2.35188e-05
1.64502e-05
1.72917e-05
1.87813e-05
1.98705e-05
2.10615e-05
2.21696e-05
2.27667e-05
2.20861e-05
2.09511e-05
1.95643e-05
1.77692e-05
)
;

boundaryField
{
    movingWall
    {
        type            nutWallFunction;
        Cmu             0.09;
        kappa           0.41;
        E               9.8;
        value           uniform 0;
    }
    left
    {
        type            nutWallFunction;
        Cmu             0.09;
        kappa           0.41;
        E               9.8;
        value           uniform 0;
    }
    right
    {
        type            calculated;
        value           nonuniform List<scalar> 10(8.10448e-06 8.80026e-06 9.21247e-06 9.23375e-06 8.98016e-06 8.75335e-06 1.03821e-05 1.50122e-05 1.64502e-05 1.77692e-05);
    }
    bottom
    {
        type            nutWallFunction;
        Cmu             0.09;
        kappa           0.41;
        E               9.8;
        value           uniform 0;
    }
    frontAndBack
    {
        type            empty;
    }
}


// ************************************************************************* //
