/*--------------------------------*- C++ -*----------------------------------*\
| =========                 |                                                 |
| \\      /  F ield         | OpenFOAM Extend Project: Open source CFD        |
|  \\    /   O peration     | Version:  1.6-ext                               |
|   \\  /    A nd           | Web:      www.extend-project.de                 |
|    \\/     M anipulation  |                                                 |
\*---------------------------------------------------------------------------*/
FoamFile
{
    version     2.0;
    format      ascii;
    class       volScalarField;
    location    "1000";
    object      nut;
}
// * * * * * * * * * * * * * * * * * * * * * * * * * * * * * * * * * * * * * //

dimensions      [0 2 -1 0 0 0 0];

internalField   nonuniform List<scalar> 
100
(
1.19086e-05
1.18379e-05
1.13198e-05
1.08036e-05
1.03345e-05
9.88426e-06
9.43783e-06
8.98045e-06
8.50621e-06
7.93507e-06
1.29533e-05
2.08333e-05
2.1431e-05
2.18048e-05
2.18019e-05
2.14088e-05
2.06629e-05
1.92879e-05
1.68283e-05
8.60235e-06
1.37331e-05
3.00075e-05
2.96272e-05
3.05122e-05
3.14242e-05
3.15666e-05
3.05288e-05
2.72756e-05
2.22251e-05
8.88033e-06
1.44192e-05
3.87648e-05
3.81292e-05
4.07531e-05
4.20901e-05
4.1904e-05
3.92603e-05
3.24419e-05
2.19851e-05
8.61953e-06
1.5076e-05
3.93639e-05
4.14741e-05
4.53123e-05
4.61418e-05
4.32459e-05
3.59151e-05
2.56058e-05
1.59063e-05
8.35933e-06
1.56323e-05
3.88884e-05
3.85867e-05
3.64851e-05
3.27656e-05
2.72691e-05
2.11517e-05
1.60302e-05
1.27612e-05
9.0064e-06
1.60899e-05
3.57521e-05
3.12563e-05
2.7391e-05
2.42993e-05
2.17821e-05
2.04425e-05
2.05663e-05
2.09385e-05
1.4908e-05
1.65117e-05
3.43368e-05
3.21296e-05
3.08658e-05
3.04416e-05
3.02179e-05
2.9998e-05
2.96607e-05
2.49987e-05
1.63546e-05
1.94564e-05
3.94274e-05
4.32133e-05
4.70854e-05
5.0804e-05
5.35817e-05
5.50187e-05
4.53547e-05
2.73157e-05
1.73893e-05
1.67353e-05
1.81061e-05
1.9145e-05
2.02706e-05
2.138e-05
2.2205e-05
2.21423e-05
2.12e-05
1.99841e-05
1.84552e-05
)
;

boundaryField
{
    movingWall
    {
        type            nutWallFunction;
        Cmu             0.09;
        kappa           0.41;
        E               9.8;
        value           uniform 0;
    }
    left
    {
        type            nutWallFunction;
        Cmu             0.09;
        kappa           0.41;
        E               9.8;
        value           uniform 0;
    }
    right
    {
        type            nutWallFunction;
        Cmu             0.09;
        kappa           0.41;
        E               9.8;
        value           uniform 0;
    }
    bottom
    {
        type            nutWallFunction;
        Cmu             0.09;
        kappa           0.41;
        E               9.8;
        value           uniform 0;
    }
    frontAndBack
    {
        type            empty;
    }
}


// ************************************************************************* //
