/*--------------------------------*- C++ -*----------------------------------*\
| =========                 |                                                 |
| \\      /  F ield         | OpenFOAM Extend Project: Open source CFD        |
|  \\    /   O peration     | Version:  1.6-ext                               |
|   \\  /    A nd           | Web:      www.extend-project.de                 |
|    \\/     M anipulation  |                                                 |
\*---------------------------------------------------------------------------*/
FoamFile
{
    version     2.0;
    format      ascii;
    class       volScalarField;
    location    "1000";
    object      p_rgh;
}
// * * * * * * * * * * * * * * * * * * * * * * * * * * * * * * * * * * * * * //

dimensions      [0 2 -2 0 0 0 0];

internalField   nonuniform List<scalar> 
100
(
7.68599e-15
-0.00220458
-0.00366466
-0.00406799
-0.00412969
-0.00413898
-0.00415357
-0.00419041
-0.00436077
-0.00538668
-0.00239808
-0.00514917
-0.00564493
-0.00546623
-0.0051412
-0.0048913
-0.00473902
-0.00466026
-0.00488381
-0.00745625
-0.00385323
-0.00813498
-0.00794095
-0.00714612
-0.00650145
-0.00611568
-0.00589284
-0.0057502
-0.00609
-0.0108777
-0.00484133
-0.0113541
-0.0106269
-0.00943971
-0.00877691
-0.00840575
-0.00813309
-0.00784264
-0.00812482
-0.0148497
-0.00555415
-0.0140095
-0.0137217
-0.0128745
-0.0123888
-0.0120938
-0.0118597
-0.0116849
-0.0124598
-0.0188173
-0.00580254
-0.0169362
-0.0174323
-0.0175486
-0.0177064
-0.0180441
-0.0184264
-0.0186843
-0.0190906
-0.0225522
-0.0056969
-0.0206197
-0.0229609
-0.0240853
-0.0253942
-0.0268398
-0.0281018
-0.0286415
-0.0283679
-0.0295372
-0.00496042
-0.0221733
-0.0249278
-0.0263393
-0.0275865
-0.0286962
-0.0293355
-0.0287804
-0.0288251
-0.0333268
-0.0013752
-0.0199645
-0.0233196
-0.0247203
-0.0256509
-0.0260425
-0.0251029
-0.022209
-0.0209157
-0.0273667
0.0130363
-0.001138
-0.0079689
-0.0122149
-0.01521
-0.0174947
-0.0181147
-0.0163103
-0.0130606
-0.0160778
)
;

boundaryField
{
    movingWall
    {
        type            buoyantPressure;
        gradient        uniform 0;
        rho             rhok;
        value           nonuniform List<scalar> 10(0.0130363 -0.001138 -0.0079689 -0.0122149 -0.01521 -0.0174947 -0.0181147 -0.0163103 -0.0130606 -0.0160778);
    }
    left
    {
        type            buoyantPressure;
        gradient        nonuniform List<scalar> 10(0.474181 1.64092 3.02496 4.60537 6.41779 8.38688 10.5098 12.4273 13.4619 12.0428);
        rho             rhok;
        value           nonuniform List<scalar> 10(0.00237091 0.00580654 0.0112716 0.0181855 0.0265348 0.0361319 0.0468519 0.0571761 0.0659343 0.0732505);
    }
    right
    {
        type            buoyantPressure;
        gradient        nonuniform List<scalar> 10(-1.04875 -2.98301 -4.70697 -6.15395 -7.30513 -8.07957 -7.85326 -8.3144 -10.6968 -13.5213);
        rho             rhok;
        value           nonuniform List<scalar> 10(-0.0106304 -0.0223713 -0.0344126 -0.0456195 -0.0553429 -0.06295 -0.0688035 -0.0748988 -0.0808506 -0.0836844);
    }
    bottom
    {
        type            buoyantPressure;
        gradient        uniform -0;
        rho             rhok;
        value           nonuniform List<scalar> 10(7.68599e-15 -0.00220458 -0.00366466 -0.00406799 -0.00412969 -0.00413898 -0.00415357 -0.00419041 -0.00436077 -0.00538668);
    }
    frontAndBack
    {
        type            empty;
    }
}


// ************************************************************************* //
