/*--------------------------------*- C++ -*----------------------------------*\
| =========                 |                                                 |
| \\      /  F ield         | OpenFOAM Extend Project: Open source CFD        |
|  \\    /   O peration     | Version:  1.6-ext                               |
|   \\  /    A nd           | Web:      www.extend-project.de                 |
|    \\/     M anipulation  |                                                 |
\*---------------------------------------------------------------------------*/
FoamFile
{
    version     2.0;
    format      ascii;
    class       surfaceScalarField;
    location    "1000";
    object      phi;
}
// * * * * * * * * * * * * * * * * * * * * * * * * * * * * * * * * * * * * * //

dimensions      [0 3 -1 0 0 0 0];

internalField   nonuniform List<scalar> 
180
(
4.50231e-06
-4.50231e-06
5.86926e-06
-1.36695e-06
6.07249e-06
-2.03235e-07
5.78357e-06
2.8892e-07
5.32702e-06
4.56555e-07
4.86476e-06
4.62264e-07
4.46339e-06
4.01365e-07
4.12317e-06
3.40216e-07
3.42642e-06
6.96751e-07
3.42642e-06
2.62557e-06
-7.12788e-06
3.44413e-06
-2.18551e-06
3.47195e-06
-2.3106e-07
3.30776e-06
4.53113e-07
3.17598e-06
5.88339e-07
3.08624e-06
5.52001e-07
2.99926e-06
4.88341e-07
2.80449e-06
5.34992e-07
2.10915e-06
1.39209e-06
5.53557e-06
1.16151e-06
-8.28939e-06
1.18943e-06
-2.21343e-06
1.04179e-06
-8.34234e-08
1.15419e-06
3.40715e-07
1.38788e-06
3.54646e-07
1.60958e-06
3.30298e-07
1.77567e-06
3.22249e-07
1.79976e-06
5.10903e-07
1.38617e-06
1.80569e-06
6.92174e-06
6.58027e-09
-8.29597e-06
-1.89127e-07
-2.01772e-06
-1.04505e-07
-1.68046e-07
1.79594e-07
5.66162e-08
4.46863e-07
8.73771e-08
6.60935e-07
1.16227e-07
8.1656e-07
1.66624e-07
8.01806e-07
5.25656e-07
4.58355e-07
2.14914e-06
7.38009e-06
-7.97226e-07
-7.49874e-06
-9.14078e-07
-1.90087e-06
-7.33459e-07
-3.48665e-07
-6.90773e-07
1.39308e-08
-7.66752e-07
1.63356e-07
-8.83577e-07
2.33052e-07
-1.01131e-06
2.94358e-07
-1.11449e-06
6.28832e-07
-1.00997e-06
2.04462e-06
6.37012e-06
-1.46537e-06
-6.03338e-06
-2.11905e-06
-1.24719e-06
-2.5826e-06
1.14887e-07
-3.11627e-06
5.47601e-07
-3.65243e-06
6.99511e-07
-4.11211e-06
6.9273e-07
-4.34124e-06
5.23494e-07
-4.06292e-06
3.50511e-07
-2.87257e-06
8.54271e-07
3.49755e-06
-2.49961e-06
-3.53376e-06
-4.18347e-06
4.36669e-07
-5.32249e-06
1.25391e-06
-6.21273e-06
1.43784e-06
-6.97229e-06
1.45908e-06
-7.50233e-06
1.22277e-06
-7.56246e-06
5.83621e-07
-6.7461e-06
-4.6585e-07
-4.65594e-06
-1.23589e-06
-1.15838e-06
-3.04745e-06
-4.86309e-07
-4.447e-06
1.83622e-06
-5.2584e-06
2.06531e-06
-5.87551e-06
2.05494e-06
-6.38703e-06
1.9706e-06
-6.74172e-06
1.57746e-06
-6.66043e-06
5.02337e-07
-5.75629e-06
-1.37e-06
-3.76315e-06
-3.22903e-06
-4.92153e-06
-3.13204e-06
2.64573e-06
-3.26521e-06
1.96939e-06
-2.93885e-06
1.73895e-06
-2.51698e-06
1.63307e-06
-2.08114e-06
1.53475e-06
-1.75809e-06
1.25441e-06
-1.4415e-06
1.85753e-07
-1.21613e-06
-1.59537e-06
-9.25301e-07
-3.51986e-06
-5.84683e-06
2.64573e-06
4.61512e-06
6.35407e-06
7.98714e-06
9.5219e-06
1.07763e-05
1.09621e-05
9.36669e-06
5.84683e-06
)
;

boundaryField
{
    movingWall
    {
        type            calculated;
        value           uniform 0;
    }
    left
    {
        type            calculated;
        value           nonuniform List<scalar> 10(-4.23516e-22 0 0 0 0 3.38813e-21 0 1.35525e-20 0 -1.35525e-20);
    }
    right
    {
        type            calculated;
        value           nonuniform List<scalar> 10(-8.47033e-22 -1.69407e-21 3.38813e-21 0 3.38813e-21 0 6.77626e-21 0 0 -6.77626e-21);
    }
    bottom
    {
        type            calculated;
        value           uniform 0;
    }
    frontAndBack
    {
        type            empty;
    }
}


// ************************************************************************* //
