/*--------------------------------*- C++ -*----------------------------------*\
| =========                 |                                                 |
| \\      /  F ield         | OpenFOAM Extend Project: Open source CFD        |
|  \\    /   O peration     | Version:  1.6-ext                               |
|   \\  /    A nd           | Web:      www.extend-project.de                 |
|    \\/     M anipulation  |                                                 |
\*---------------------------------------------------------------------------*/
FoamFile
{
    version     2.0;
    format      ascii;
    class       volScalarField;
    location    "1000";
    object      T;
}
// * * * * * * * * * * * * * * * * * * * * * * * * * * * * * * * * * * * * * //

dimensions      [0 0 0 1 0 0 0];

internalField   nonuniform List<scalar> 
100
(
321.337
325.589
326.74
327.415
328.006
328.542
329.047
329.633
331.634
351.751
328.757
336.823
337.441
336.708
335.788
335.099
334.706
334.685
336.437
357.362
334.671
347.591
347.145
344.599
342.645
341.481
340.762
340.337
341.656
362.868
340.065
357.269
355.502
352.188
350.369
349.272
348.384
347.47
348.075
369.365
345.69
363.865
363.181
360.986
359.664
358.77
358.055
357.588
359.455
376.412
350.721
370.159
370.776
370.607
370.578
370.991
371.688
372.621
374.763
384.448
355.41
377.344
380.525
381.871
383.724
385.976
388.369
390.639
392.966
397.881
357.453
379.986
383.454
385.073
386.513
387.774
388.754
389.576
392.686
402.955
353.721
376.475
380.765
382.425
383.291
383.241
381.781
379.685
381.486
395.208
337.611
355.871
364.072
368.841
371.925
373.797
374.383
374.676
375.515
386.684
)
;

boundaryField
{
    movingWall
    {
        type            zeroGradient;
    }
    left
    {
        type            fixedValue;
        value           uniform 273;
    }
    right
    {
        type            chtRcTemperature;
        K               kappaEff;
        radiation       0;
        remoteField     T;
        value           nonuniform List<scalar> 10(458.657 458.721 458.83 458.981 459.153 459.321 459.461 459.458 459.349 459.227);
    }
    bottom
    {
        type            zeroGradient;
    }
    frontAndBack
    {
        type            empty;
    }
}


// ************************************************************************* //
