/*--------------------------------*- C++ -*----------------------------------*\
| =========                 |                                                 |
| \\      /  F ield         | OpenFOAM Extend Project: Open source CFD        |
|  \\    /   O peration     | Version:  1.6-ext                               |
|   \\  /    A nd           | Web:      www.extend-project.de                 |
|    \\/     M anipulation  |                                                 |
\*---------------------------------------------------------------------------*/
FoamFile
{
    version     2.0;
    format      ascii;
    class       volVectorField;
    location    "1000";
    object      U;
}
// * * * * * * * * * * * * * * * * * * * * * * * * * * * * * * * * * * * * * //

dimensions      [0 1 -1 0 0 0 0];

internalField   nonuniform List<vector> 
100
(
(0.0295264 -0.0357434 0)
(0.0541335 -0.0150857 0)
(0.0623855 -0.00625994 0)
(0.0604819 -0.00181202 0)
(0.0557728 0.000548169 0)
(0.0508888 0.00161673 0)
(0.0464359 0.00187615 0)
(0.0429562 0.00165739 0)
(0.039245 0.00332546 0)
(0.0292547 0.0205744 0)
(0.0129093 -0.0610494 0)
(0.0340814 -0.0184059 0)
(0.0361843 -0.00124238 0)
(0.0342823 0.00559937 0)
(0.0323226 0.00739956 0)
(0.0312368 0.00698463 0)
(0.030389 0.00588349 0)
(0.0296692 0.00523676 0)
(0.0248336 0.0108653 0)
(0.0199074 0.0450168 0)
(0.00181448 -0.0804527 0)
(0.0162571 -0.0244499 0)
(0.0105593 -0.0026235 0)
(0.0107042 0.00414439 0)
(0.0126249 0.00497149 0)
(0.0150747 0.00454783 0)
(0.0169393 0.00419475 0)
(0.0187435 0.00548515 0)
(0.0156992 0.0164597 0)
(0.0141214 0.0634032 0)
(-0.00552242 -0.0853257 0)
(0.0022225 -0.0194228 0)
(-0.00307329 0.000864909 0)
(0.000614903 0.0025362 0)
(0.00314517 0.00197094 0)
(0.00569141 0.00178419 0)
(0.00735545 0.00182244 0)
(0.00924903 0.00413571 0)
(0.00424973 0.0188039 0)
(0.008217 0.0740784 0)
(-0.010081 -0.0803309 0)
(-0.00777478 -0.0205671 0)
(-0.00878798 -0.00376836 0)
(-0.00646595 -0.00108361 0)
(-0.00722609 -2.31579e-05 0)
(-0.00819998 0.00069129 0)
(-0.00961471 0.00158561 0)
(-0.0107318 0.00587362 0)
(-0.0146562 0.022759 0)
(-0.000172378 0.0725769 0)
(-0.0141959 -0.0696105 0)
(-0.017502 -0.0178157 0)
(-0.0234325 -0.00338541 0)
(-0.0284487 0.00135931 0)
(-0.0339284 0.00325715 0)
(-0.0392288 0.00404403 0)
(-0.0433483 0.00448189 0)
(-0.0440991 0.00710105 0)
(-0.038378 0.0191791 0)
(-0.0132245 0.055845 0)
(-0.0198741 -0.0485269 0)
(-0.0335001 -0.00539373 0)
(-0.0487529 0.00661412 0)
(-0.0578429 0.00998188 0)
(-0.0663585 0.0112861 0)
(-0.0733187 0.0107474 0)
(-0.0773151 0.0077802 0)
(-0.074346 0.00309988 0)
(-0.0595446 0.00312211 0)
(-0.0283587 0.0185082 0)
(-0.0251748 -0.019177 0)
(-0.0386075 0.0152011 0)
(-0.0493606 0.0190941 0)
(-0.05589 0.0191732 0)
(-0.0615762 0.0178625 0)
(-0.0665587 0.0131516 0)
(-0.0696535 0.00260061 0)
(-0.0636139 -0.0144 0)
(-0.0511005 -0.0313097 0)
(-0.015769 -0.0451153 0)
(-0.0274619 0.00652511 0)
(-0.0336177 0.0172944 0)
(-0.0315285 0.0189524 0)
(-0.0273315 0.0191777 0)
(-0.022904 0.0187779 0)
(-0.0196296 0.0151375 0)
(-0.0199942 0.00121077 0)
(-0.00906819 -0.0217831 0)
(-0.0155707 -0.0422011 0)
(0.0123304 -0.0605591 0)
(0.0341939 0.0455831 0)
(0.0341 0.026103 0)
(0.0544279 0.0192786 0)
(0.071988 0.0163731 0)
(0.0878229 0.0147458 0)
(0.101493 0.0130332 0)
(0.112046 0.00883379 0)
(0.107409 -0.000125473 0)
(0.0776176 -0.0161051 0)
(0.0584962 -0.0413118 0)
)
;

boundaryField
{
    movingWall
    {
        type            fixedValue;
        value           uniform (1 0 0);
    }
    left
    {
        type            fixedValue;
        value           uniform (0 0 0);
    }
    right
    {
        type            fixedValue;
        value           uniform (0 0 0);
    }
    bottom
    {
        type            fixedValue;
        value           uniform (0 0 0);
    }
    frontAndBack
    {
        type            empty;
    }
}


// ************************************************************************* //
