/*--------------------------------*- C++ -*----------------------------------*\
| =========                 |                                                 |
| \\      /  F ield         | OpenFOAM Extend Project: Open source CFD        |
|  \\    /   O peration     | Version:  1.6-ext                               |
|   \\  /    A nd           | Web:      www.extend-project.de                 |
|    \\/     M anipulation  |                                                 |
\*---------------------------------------------------------------------------*/
FoamFile
{
    version     2.0;
    format      ascii;
    class       volVectorField;
    location    "1000";
    object      U;
}
// * * * * * * * * * * * * * * * * * * * * * * * * * * * * * * * * * * * * * //

dimensions      [0 1 -1 0 0 0 0];

internalField   nonuniform List<vector> 
100
(
(0.0285068 -0.0345642 0)
(0.0527058 -0.0148458 0)
(0.0614246 -0.00614097 0)
(0.0600371 -0.00171436 0)
(0.0554705 0.000680999 0)
(0.0504542 0.00181115 0)
(0.0456166 0.0021393 0)
(0.0416873 0.00195901 0)
(0.0369879 0.00350231 0)
(0.0280978 0.0192312 0)
(0.0125315 -0.0591491 0)
(0.0330783 -0.0190781 0)
(0.0362549 -0.00213901 0)
(0.0350894 0.00504459 0)
(0.0332152 0.00730458 0)
(0.0318644 0.0073077 0)
(0.0305057 0.00654351 0)
(0.0293005 0.00609489 0)
(0.0236671 0.0113712 0)
(0.0193989 0.0427181 0)
(0.0017938 -0.0776312 0)
(0.0150585 -0.0258069 0)
(0.0117263 -0.00417937 0)
(0.0123765 0.00335553 0)
(0.0140291 0.00510957 0)
(0.0159862 0.00532077 0)
(0.0170732 0.00536296 0)
(0.0181429 0.00668456 0)
(0.0135779 0.0166216 0)
(0.0132925 0.0597016 0)
(-0.00527462 -0.0815328 0)
(0.000513147 -0.0227977 0)
(-0.00286341 -0.0022328 0)
(0.000850599 0.00192498 0)
(0.00265801 0.00278994 0)
(0.00399448 0.00362248 0)
(0.0037859 0.00457051 0)
(0.00361621 0.0074301 0)
(-0.00381151 0.0206448 0)
(0.00590264 0.0683191 0)
(-0.00986187 -0.0756493 0)
(-0.0102878 -0.0232227 0)
(-0.0124869 -0.00680971 0)
(-0.0119431 -0.00173756 0)
(-0.0145942 0.00155379 0)
(-0.0181124 0.0039296 0)
(-0.022417 0.00597114 0)
(-0.0261599 0.00970351 0)
(-0.0279774 0.0211105 0)
(-0.00754165 0.0575177 0)
(-0.0140922 -0.0625861 0)
(-0.0219308 -0.0163338 0)
(-0.0327629 -0.0013453 0)
(-0.0410487 0.00526709 0)
(-0.0490862 0.00941881 0)
(-0.056902 0.0124471 0)
(-0.0632846 0.0142415 0)
(-0.0651821 0.0154557 0)
(-0.0564099 0.0197293 0)
(-0.0283587 0.0336586 0)
(-0.0189055 -0.0403442 0)
(-0.0339564 -0.000584809 0)
(-0.0488656 0.010439 0)
(-0.0583991 0.0146327 0)
(-0.0668644 0.0172576 0)
(-0.0740176 0.0174893 0)
(-0.0787132 0.0130422 0)
(-0.0768105 0.00156745 0)
(-0.0616136 -0.0154494 0)
(-0.0238303 -0.0401464 0)
(-0.0228712 -0.0133576 0)
(-0.0345274 0.0174702 0)
(-0.0430181 0.0216538 0)
(-0.0471825 0.0229728 0)
(-0.0498271 0.0238708 0)
(-0.0516899 0.0219975 0)
(-0.0535767 0.0134859 0)
(-0.0480094 -0.00686557 0)
(-0.0418187 -0.0336006 0)
(0.00204208 -0.0699646 0)
(-0.0254138 0.0100659 0)
(-0.0307616 0.0177103 0)
(-0.0276053 0.0188856 0)
(-0.0219026 0.0192135 0)
(-0.0152117 0.0197855 0)
(-0.0075296 0.0189845 0)
(-0.00644365 0.0105323 0)
(0.0108847 -0.0146347 0)
(-0.00663938 -0.0441417 0)
(0.0307213 -0.0819849 0)
(0.03453 0.0462355 0)
(0.036797 0.0265681 0)
(0.0570006 0.0193364 0)
(0.0744142 0.0161007 0)
(0.0901003 0.0143167 0)
(0.105159 0.0128526 0)
(0.117342 0.0093365 0)
(0.120401 0.00242599 0)
(0.0935406 -0.0127039 0)
(0.0760575 -0.056697 0)
)
;

boundaryField
{
    movingWall
    {
        type            fixedValue;
        value           uniform (1 0 0);
    }
    left
    {
        type            fixedValue;
        value           uniform (0 0 0);
    }
    right
    {
        type            fixedValue;
        value           uniform (0 0 0);
    }
    bottom
    {
        type            fixedValue;
        value           uniform (0 0 0);
    }
    frontAndBack
    {
        type            empty;
    }
}


// ************************************************************************* //
