/*--------------------------------*- C++ -*----------------------------------*\
| =========                 |                                                 |
| \\      /  F ield         | OpenFOAM Extend Project: Open source CFD        |
|  \\    /   O peration     | Version:  1.6-ext                               |
|   \\  /    A nd           | Web:      www.extend-project.de                 |
|    \\/     M anipulation  |                                                 |
\*---------------------------------------------------------------------------*/
FoamFile
{
    version     2.0;
    format      ascii;
    class       volScalarField;
    location    "1000";
    object      T;
}
// * * * * * * * * * * * * * * * * * * * * * * * * * * * * * * * * * * * * * //

dimensions      [0 0 0 1 0 0 0];

internalField   nonuniform List<scalar> 
100
(
431.497
433.78
436.046
438.301
440.547
462.935
465.173
467.409
469.646
471.882
431.517
433.796
436.058
438.31
440.554
462.936
465.173
467.41
469.646
471.882
431.563
433.828
436.081
438.326
440.567
462.938
465.175
467.411
469.647
471.882
431.631
433.872
436.11
438.348
440.584
462.941
465.177
467.412
469.647
471.882
431.704
433.919
436.141
438.37
440.601
462.944
465.179
467.413
469.648
471.883
431.768
433.957
436.167
438.388
440.616
462.947
465.181
467.415
469.649
471.883
431.798
433.975
436.18
438.399
440.626
462.949
465.182
467.416
469.649
471.883
431.767
433.966
436.18
438.403
440.631
462.951
465.183
467.416
469.65
471.883
431.707
433.941
436.171
438.401
440.632
462.952
465.184
467.417
469.65
471.883
431.653
433.919
436.163
438.398
440.631
462.952
465.184
467.417
469.65
471.883
)
;

boundaryField
{
    topAndBottom
    {
        type            zeroGradient;
    }
    left
    {
        type            chtRcTemperature;
        K               k;
        radiation       0;
        remoteField     T;
        value           nonuniform List<scalar> 10(430.346 430.364 430.42 430.508 430.602 430.689 430.741 430.682 430.587 430.494);
    }
    right
    {
        type            fixedValue;
        value           uniform 473;
    }
    frontAndBack
    {
        type            empty;
    }
}


// ************************************************************************* //
