/*--------------------------------*- C++ -*----------------------------------*\
| =========                 |                                                 |
| \\      /  F ield         | OpenFOAM Extend Project: Open source CFD        |
|  \\    /   O peration     | Version:  1.6-ext                               |
|   \\  /    A nd           | Web:      www.extend-project.de                 |
|    \\/     M anipulation  |                                                 |
\*---------------------------------------------------------------------------*/
FoamFile
{
    version     2.0;
    format      ascii;
    class       volScalarField;
    location    "1000";
    object      T;
}
// * * * * * * * * * * * * * * * * * * * * * * * * * * * * * * * * * * * * * //

dimensions      [0 0 0 1 0 0 0];

internalField   nonuniform List<scalar> 
100
(
432.803
435.008
437.2
439.382
441.557
463.248
465.416
467.583
469.75
471.917
432.82
435.02
437.209
439.389
441.563
463.249
465.417
467.584
469.751
471.917
432.853
435.045
437.227
439.403
441.574
463.251
465.418
467.585
469.751
471.917
432.901
435.078
437.251
439.421
441.589
463.254
465.42
467.586
469.752
471.917
432.955
435.116
437.278
439.442
441.606
463.257
465.422
467.587
469.752
471.917
433.009
435.151
437.303
439.461
441.623
463.26
465.425
467.589
469.753
471.918
433.044
435.177
437.323
439.477
441.636
463.263
465.427
467.59
469.754
471.918
433.05
435.188
437.335
439.488
441.647
463.266
465.428
467.591
469.755
471.918
433.043
435.19
437.341
439.495
441.653
463.267
465.429
467.592
469.755
471.918
433.034
435.189
437.343
439.498
441.656
463.268
465.43
467.592
469.755
471.918
)
;

boundaryField
{
    topAndBottom
    {
        type            zeroGradient;
    }
    left
    {
        type            chtRcTemperature;
        K               k;
        radiation       0;
        remoteField     T;
        value           nonuniform List<scalar> 10(431.693 431.711 431.751 431.809 431.875 431.948 431.993 431.987 431.971 431.953);
    }
    right
    {
        type            fixedValue;
        value           uniform 473;
    }
    frontAndBack
    {
        type            empty;
    }
}


// ************************************************************************* //
