/*--------------------------------*- C++ -*----------------------------------*\
| =========                 |                                                 |
| \\      /  F ield         | OpenFOAM: The Open Source CFD Toolbox           |
|  \\    /   O peration     | Version:  2.0.x                                 |
|   \\  /    A nd           | Web:      www.OpenFOAM.com                      |
|    \\/     M anipulation  |                                                 |
\*---------------------------------------------------------------------------*/
FoamFile
{
    version     2.0;
    format      ascii;
    class       polyBoundaryMesh;
    location    "constant/polyMesh";
    object      boundary;
}
// * * * * * * * * * * * * * * * * * * * * * * * * * * * * * * * * * * * * * //

15
(
    cabHeatTransmissiveWall
    {
        type            patch;
        nFaces          0;
        startFace       48186;
    }
    bayHeatTransmissiveWall
    {
        type            patch;
        nFaces          0;
        startFace       48186;
    }

    cabOutlet
    {
        type            patch;
        nFaces          8;
        startFace       48186;
    }
    walls
    {
        type            patch;
        nFaces          197;
        startFace       48194;
    }
    topExtWall
    {
        type            patch;
        nFaces          172;
        startFace       48391;
    }
    toSolidL
    {
        type            patch;
        nFaces          67;
        startFace       48563;
    }
    cabInlet
    {
        type            patch;
        nFaces          4;
        startFace       48630;
    }
    toSolidR
    {
        type            patch;
        nFaces          67;
        startFace       48634;
    }
    passengers
    {
        type            patch;
        nFaces          672;
        startFace       48701;
    }
    bottomExtWall
    {
        type            patch;
        nFaces          300;
        startFace       49373;
    }
    bayOutlet
    {
        type            patch;
        nFaces          10;
        startFace       49673;
    }
    core2
    {
        type            patch;
        nFaces          118;
        startFace       49683;
    }
    core1
    {
        type            patch;
        nFaces          148;
        startFace       49801;
    }
    bayInlet
    {
        type            patch;
        nFaces          9;
        startFace       49949;
    }
    defaultFaces
    {
        type            patch;
        nFaces          52296;
        startFace       49958;
    }
)

// ************************************************************************* //
