/*--------------------------------*- C++ -*----------------------------------*\
| =========                 |                                                 |
| \\      /  F ield         | OpenFOAM Extend Project: Open source CFD        |
|  \\    /   O peration     | Version:  1.6-ext                               |
|   \\  /    A nd           | Web:      www.extend-project.de                 |
|    \\/     M anipulation  |                                                 |
\*---------------------------------------------------------------------------*/
FoamFile
{
    version     2.0;
    format      ascii;
    class       volScalarField;
    location    "2000";
    object      G;
}
// * * * * * * * * * * * * * * * * * * * * * * * * * * * * * * * * * * * * * //

dimensions      [1 0 -3 0 0 0 0];

internalField   nonuniform List<scalar> 
26307
(
1821.2
1885.55
1861.05
1933.24
1853.57
1879.86
1895.82
1836.02
1900
1823.98
1817.4
1875.22
1901.27
1858.96
1930.71
1885.55
1847.38
1889.3
1894.7
1870.95
1860.83
1818.76
1886.5
1938.78
1883.97
1879.48
1870.94
1934.74
1880.48
1862.25
1925.59
1846.12
1897.44
1887.86
1875.89
1817.92
1833.92
1896.84
1880.76
1829.97
1892.49
1888.44
1859.34
1888.6
1877.67
1921.21
1859.17
1843.67
1829.54
1896.7
1899.92
1908.67
1857.65
1874.27
1886.02
1859.99
1849.3
1909.73
1845.66
1859.5
1924.3
1916.19
1890.63
1941.46
1869.25
1891.7
1820.39
1897.53
1848.7
1827.28
1841.75
1881.51
1821.9
1926.25
1931.99
1833.75
1886.94
1878.45
1857.4
1882.34
1893.04
1819.52
1943.29
1838.72
1818.9
1843.2
1877.57
1848.62
1827.64
1885.11
1819.6
1887.22
1890.32
1893.91
1879.68
1873.5
1893.89
1890.61
1852.17
1859.62
1892.58
1901.07
1819.36
1820.93
1857.66
1888.74
1875.71
1859.23
1819.05
1854.81
1831.94
1941.49
1856.53
1835.2
1929.33
1941.87
1942.42
1873.6
1847.12
1821.52
1825.26
1856.87
1921.29
1897.3
1867.5
1874.26
1844.47
1881.29
1892.22
1904.03
1894.93
1918.45
1831.64
1896.83
1876.06
1855.65
1846.9
1823.59
1875.17
1882.66
1821.84
1885.26
1866.46
1936.81
1819.14
1844.43
1852.35
1897.47
1913.67
1857.96
1831.94
1877.28
1895.8
1829.86
1829.13
1851.09
1903.86
1912.62
1866.3
1917.75
1868.19
1873.22
1846.78
1850.77
1819.23
1840.69
1858.38
1844.08
1889.28
1836.13
1824.25
1824.21
1819.04
1855.48
1942.59
1903.21
1889.71
1821.96
1823.11
1837.18
1868.91
1875.65
1827.67
1848.22
1897.88
1854.15
1860.37
1917.05
1918.91
1880.19
1892.8
1884.2
1889.25
1821.5
1858.7
1819.25
1891.81
1838.16
1902.42
1832.31
1936.98
1820.03
1893.34
1890.28
1882.99
1832.15
1886.84
1905.38
1867.85
1888.6
1847.4
1874.38
1818.45
1896.26
1905.54
1839.24
1884.08
1866.67
1827.59
1885.05
1873.38
1905.64
1934.24
1867.3
1910.56
1818.74
1937.94
1866.5
1831.59
1895.86
1861.82
1856.41
1944.54
1861.46
1818.66
1881.67
1824.29
1887.33
1885.92
1849.43
1908.17
1927.68
1884.99
1862.02
1874.92
1848.38
1854.39
1846.22
1874.25
1858.62
1818.85
1822.22
1943.28
1916.65
1888.09
1938.36
1912.02
1882.49
1934.05
1866.27
1819.26
1926.8
1902.25
1855.24
1824.29
1900.52
1836.29
1847.3
1823.59
1853.57
1846.72
1837.09
1839.81
1920.04
1822.72
1921.86
1879.07
1890.9
1883.85
1856.32
1883.29
1874.27
1860.93
1901.4
1915.69
1858.75
1851.66
1935.13
1852.87
1847.15
1878.19
1890.97
1823.1
1852.38
1851.94
1866.07
1898.25
1882.92
1852.06
1889.95
1867.15
1871.13
1851.86
1854.92
1886.56
1893.32
1896.79
1859.39
1833.39
1880.37
1829.84
1892.3
1819.86
1902.85
1880.16
1881.35
1922.37
1872.15
1823.69
1856.91
1853.18
1866.67
1902.18
1878.93
1877.18
1891.48
1885.52
1840.69
1819.88
1872.7
1827.69
1913.48
1848.7
1851.61
1854.94
1893.54
1820.64
1855.42
1826.52
1876.89
1939.03
1933.9
1821.24
1821.37
1886.91
1851.97
1877.97
1827.24
1869.9
1867.57
1851.75
1883.54
1936.75
1882.39
1869.09
1851.49
1884.64
1891.55
1942.85
1871.6
1881.5
1818.44
1880.31
1922.76
1895.91
1879.75
1855.15
1881.54
1886.88
1872.55
1871.73
1844.22
1855.64
1869.51
1862.42
1822.5
1818.22
1835.02
1854.35
1890.13
1836.11
1822.28
1923.5
1942.87
1892.15
1844.98
1841.42
1828.96
1870.64
1819.33
1879.32
1851.28
1866.5
1870.99
1843.13
1830.22
1892.84
1893.29
1878.78
1921.21
1874.43
1895.84
1910.86
1843.92
1819.77
1859.8
1865.09
1848.1
1851.15
1920.9
1887.34
1867.04
1820.14
1851.44
1912.13
1882.2
1900.06
1891.75
1937.53
1861.46
1923.71
1894.31
1885.27
1888.13
1844.62
1830.49
1914.5
1884.75
1821.57
1887.52
1818.33
1851.87
1874.14
1840.71
1851.17
1829.62
1880.44
1883.13
1852.22
1850.51
1857.37
1873.68
1897.63
1889.46
1824.68
1920.49
1876.82
1819.93
1879.64
1817.56
1847.84
1893.99
1850.11
1859.93
1819.36
1868.69
1856.67
1855.16
1881.16
1888.3
1849.19
1891.73
1880.67
1881.94
1871.83
1827.1
1881.82
1932.98
1918.2
1892.47
1818.07
1882.5
1852.51
1852.71
1870.8
1880.13
1865.21
1861.38
1917.34
1885.59
1852.68
1903.6
1893.9
1853.28
1857.78
1871.27
1850.82
1890.51
1846.45
1838.03
1871.84
1858.05
1863.1
1913.84
1911.96
1849.38
1852.3
1821.23
1887.8
1932.42
1820.36
1856.14
1853.74
1946.02
1837.18
1838.94
1819.19
1848.49
1855.02
1882.73
1919.31
1946.06
1893.97
1902.9
1873.47
1902.31
1888.37
1864.02
1853.51
1894.2
1929.19
1880.64
1858.38
1938.21
1885.38
1889.53
1891.67
1853.1
1829.85
1892.41
1868.83
1852.8
1852.6
1852.64
1903.52
1850.23
1887.54
1883.47
1871.13
1886.31
1854.68
1850.37
1831.39
1853.06
1863.25
1842.29
1946.99
1865.79
1880.74
1871.44
1890.48
1837.17
1854.19
1896.71
1920.67
1868.89
1862.71
1889.02
1876.91
1937.77
1881.64
1871.54
1834.67
1891.53
1863.17
1843.41
1935.79
1881.88
1851.47
1857.23
1927.98
1884.24
1881.43
1897.81
1902.98
1878.71
1895.52
1831.63
1852.96
1893.15
1855.71
1882.28
1922.94
1893.11
1878.26
1850.69
1873.22
1826.67
1904.01
1880.25
1899.49
1872.66
1876.81
1890.56
1864.19
1826.42
1835.02
1853.72
1886.24
1886.26
1872.98
1819.19
1872.87
1924.87
1820.53
1921
1898.46
1941.43
1894.47
1903.51
1946.79
1919.7
1854.09
1844.51
1837.16
1855.53
1844.25
1825.43
1847.99
1881.61
1847.82
1855.48
1895.25
1827.29
1856.76
1818.93
1836.25
1852.9
1881.68
1913.42
1883.66
1851.39
1905.41
1855.35
1874.3
1923.74
1825.77
1864.51
1868.85
1891.58
1822.55
1853.58
1835.48
1883.52
1870.6
1853.22
1841.09
1820.93
1859.83
1900.2
1819.18
1857.3
1901.66
1894.97
1865.78
1854.38
1821.42
1913.94
1838.4
1850.46
1819.33
1881.12
1818.56
1894.91
1856.36
1848.53
1862.5
1897.97
1887.55
1822.27
1904.91
1920.91
1943.69
1938.58
1879.61
1921.71
1892.37
1850.04
1877.71
1822.38
1864.72
1872.55
1889.09
1903.25
1880.63
1908.61
1849.89
1852.32
1853.18
1852.59
1843.44
1898.97
1851.03
1906.12
1848.81
1892.54
1881.19
1850.35
1865.82
1884.83
1853.11
1942.84
1858.3
1901.86
1933
1881.71
1870.35
1834.49
1853.39
1885.95
1871.64
1869.68
1848.18
1911.96
1857.46
1877.71
1857.16
1852.7
1852.72
1891.73
1832.98
1861.56
1847.71
1864.86
1849.64
1884.44
1850.23
1851.9
1860.77
1912.63
1838.83
1861.74
1865.32
1851.94
1822.69
1863.78
1865.92
1843.21
1859.58
1909.36
1847.68
1916.79
1848.05
1838.93
1870.18
1869.9
1879.27
1897.46
1881.53
1850.08
1849.41
1834.01
1858.95
1858.85
1835
1900.17
1883.29
1868.86
1858.83
1931.18
1853.46
1858.04
1940.67
1876.29
1889.69
1894.58
1856.13
1858.82
1824.55
1840.62
1853.58
1857.78
1904.08
1881.5
1893.84
1864.45
1887.81
1852.24
1865.85
1832.28
1886.21
1887.05
1941.93
1870.64
1902.94
1887.43
1924.46
1900.31
1845.76
1856.62
1914.74
1936.24
1861.33
1890.82
1851.69
1887.5
1848.24
1857.8
1864.01
1899.13
1820.07
1854.97
1865.34
1830.76
1841.86
1908.8
1858.36
1921.01
1847.73
1850.6
1922.03
1884.44
1850.56
1855.77
1848.25
1882.01
1871.95
1818.75
1867
1884.61
1872.83
1865.44
1881.93
1879.15
1894.68
1820.41
1913.88
1903.18
1940.45
1875.85
1888.29
1866.69
1878.64
1856.76
1826.03
1848.28
1894.84
1866.03
1859.34
1885.45
1886.8
1818.45
1842.4
1928.57
1872.85
1832.86
1838.38
1878.18
1882.85
1873.29
1922.52
1857.37
1874.05
1821.93
1856.95
1831.86
1819.71
1899.33
1885.65
1879.72
1879.24
1857.1
1817.87
1913.12
1881.72
1832.37
1837.58
1925.6
1853.63
1901.43
1919.33
1946.32
1892.61
1927.97
1873.31
1880.46
1903.27
1867.35
1823.05
1850.1
1939.89
1875.87
1885.68
1881.74
1825.73
1829.11
1852.6
1888.06
1880.85
1903.84
1894.56
1892.94
1854.42
1893.96
1878.79
1829.95
1818.74
1857.16
1834.95
1916.77
1829.31
1871.06
1935.54
1818.99
1874.24
1859.87
1899.83
1872.74
1833.05
1850.97
1889.23
1924.74
1845
1910.54
1849.62
1887.54
1921.87
1877.43
1838.2
1860.33
1898.61
1821.7
1850.05
1863.25
1839.06
1858.13
1825.26
1941.48
1859.16
1923.66
1857.84
1884.92
1818.17
1849.1
1853.4
1851.3
1883.08
1900.04
1881.12
1830.55
1900.79
1818.85
1866.77
1902.62
1903.01
1888.54
1857.3
1903.27
1863.11
1852.28
1859.43
1889.96
1853.46
1853.45
1853.45
1818.19
1900.28
1833.73
1868.07
1844.01
1874.73
1882.47
1828.37
1819.27
1830.24
1895.61
1820.93
1863.46
1818.57
1888.18
1918.73
1897.78
1875.92
1839.83
1893.71
1880.51
1910.23
1936.33
1917.68
1944.39
1889.49
1850.91
1865.78
1850.72
1850.81
1865.09
1931.7
1892.04
1820.63
1857.89
1878.84
1875.83
1892.02
1824.93
1883.83
1819.97
1837.3
1853.39
1873.5
1854.04
1863.07
1821.59
1824.49
1902.29
1860.86
1902.9
1887.75
1853.44
1894.14
1904.7
1905.01
1886.58
1875.53
1883.34
1925.05
1886.85
1839.05
1930.8
1882.15
1894.22
1878.46
1893.16
1850.26
1862.44
1820.88
1901.97
1893.61
1883.97
1850.59
1856.06
1824.12
1919.12
1878.45
1830.34
1898.38
1919.21
1869.42
1939.18
1874.43
1864.13
1859.88
1862.11
1897.25
1876.03
1884.38
1868.36
1900.31
1853.79
1850.56
1902.98
1887.65
1882.81
1871.27
1847.49
1822.72
1821.6
1857.97
1872.67
1853.11
1834.08
1938.06
1819.19
1885.66
1866.5
1884.06
1844.32
1901.47
1852.25
1844.79
1903.85
1848.86
1860.27
1819.22
1857.49
1889.16
1901.65
1852.45
1940.7
1886.55
1923.65
1827.3
1880.8
1899.07
1914.51
1849.63
1862.41
1904.57
1938.56
1885.08
1906.7
1884.39
1874.57
1840.62
1892.44
1875.67
1885.12
1847.42
1857.28
1886.79
1843.64
1859.35
1839.29
1855.09
1921.16
1818.78
1901.55
1862.37
1839.36
1859.86
1874.72
1870.98
1871.51
1880.61
1818.64
1819.57
1830.68
1860.21
1850.92
1904.05
1857.06
1893.65
1878.89
1859.07
1884.57
1865.63
1880.68
1883.52
1873.88
1893.77
1899.96
1866.88
1920.35
1882.64
1866.18
1918.47
1841.24
1860.36
1864.88
1899.64
1861.32
1862.01
1843.5
1890.55
1867.18
1859.85
1901.41
1867.28
1864.78
1878.84
1866.3
1890.94
1869.63
1852.08
1902.58
1865.51
1861.91
1881.45
1879.05
1870.23
1869.71
1892.67
1896.68
1862.92
1840.68
1901.48
1889.32
1861.75
1884.22
1838.04
1861.13
1818.69
1874.52
1859.65
1818.09
1887.77
1895.61
1823.64
1862.92
1935.16
1902.16
1847.27
1850.3
1852.91
1872.43
1856.98
1851.7
1870.52
1822.21
1869.62
1885.91
1874.83
1819.03
1849.65
1865.33
1847.09
1927.51
1936.37
1859.26
1859.45
1867.42
1866.35
1918.03
1856.91
1888.14
1876.71
1819.3
1879.39
1891.87
1903.71
1856.13
1867.27
1824.75
1929.07
1928.29
1863.34
1875
1863.59
1943.54
1916.81
1888.37
1937.35
1911.23
1881.69
1883.02
1853.47
1903.5
1895
1872.5
1841.72
1853.87
1818.92
1864.58
1891.09
1877.26
1936.51
1902.46
1850.01
1819.87
1866.3
1900.37
1860.36
1881.21
1880.33
1855.01
1890.82
1922.61
1861.92
1820.06
1899.18
1819.23
1885.81
1882.02
1911.1
1894.4
1933.3
1871.86
1892.41
1908.43
1872.21
1833.05
1898.78
1825.16
1868.47
1869.7
1918.39
1868.09
1877.09
1889.18
1885.53
1867.83
1918.88
1859.21
1871.07
1830.67
1902.29
1900.67
1945.5
1908.74
1904.23
1903.24
1918.4
1919.71
1862.76
1825.49
1847.26
1841.19
1889.2
1858.44
1927.4
1870.37
1847.47
1879.72
1836.4
1874.52
1823.49
1867.02
1867.62
1884.17
1843.62
1853.64
1873.46
1879.28
1871.5
1880.2
1836.32
1820.59
1912.67
1859.74
1890.81
1846.29
1907.95
1901.61
1840.03
1902.67
1921.53
1900.5
1896.3
1922.37
1854.17
1854.75
1890.04
1888.64
1866.9
1864.9
1891.16
1850.31
1866.3
1868.99
1818.55
1864.82
1844.46
1894.98
1925.33
1879.88
1855.51
1879.09
1848.18
1889.14
1862.41
1862.91
1885.28
1856.74
1860.99
1863.61
1881.32
1874.37
1916.47
1885.36
1868.93
1849.89
1942.86
1875.36
1841.82
1866.66
1818.7
1819.23
1903.77
1820.93
1884.94
1836.67
1849.94
1875.99
1867.27
1881.08
1887.36
1876.06
1855.12
1852.05
1870.75
1882.73
1895.16
1887.3
1821.12
1876.51
1821.53
1855.63
1868.73
1839.9
1879.91
1885.7
1884.62
1826.04
1901.91
1865.71
1824.45
1901.93
1885.91
1863.41
1909.03
1858.09
1877.52
1858.77
1864.62
1887.11
1879.55
1851.91
1871.35
1861.61
1926.53
1853.84
1902.4
1899.34
1849.75
1891.94
1853.97
1896.49
1869.89
1891.04
1877.44
1844.4
1894.56
1879.78
1870.28
1909.57
1867.37
1865.37
1894.98
1882.95
1888.51
1878.29
1869.18
1820.48
1843.33
1817.96
1865.91
1831.53
1861.33
1860.96
1893.95
1906.94
1821.66
1896.39
1880.19
1854.08
1883.11
1888.35
1873.78
1930.17
1859.56
1887.23
1875.38
1865.16
1820.29
1889.08
1859.75
1886.89
1923.47
1858.88
1861.84
1884.58
1864.49
1836.99
1840.17
1855.55
1874.69
1928.34
1925.94
1861.42
1885.1
1943.35
1819.74
1835.07
1854.3
1892.44
1883.4
1918.2
1819.53
1826.9
1860.98
1894.92
1864.89
1897.71
1936.96
1849.36
1824.97
1877.02
1890.25
1871.59
1910.04
1871.72
1868.86
1850.69
1942.18
1928.98
1917.85
1885.14
1885.26
1897
1896.16
1854.54
1875.41
1818.27
1818.87
1864.43
1905.98
1877.23
1860.01
1892.16
1843.14
1884.92
1874.84
1887.95
1882.2
1912.64
1880.53
1885.75
1895.89
1858.44
1857.83
1851.4
1825.45
1908.52
1857.46
1881.15
1862.84
1921.85
1865.35
1891.4
1827.8
1924.38
1819.62
1854.09
1884.93
1886.93
1907.32
1870.92
1864.7
1903.21
1866.68
1909.34
1853.59
1881.45
1846.45
1908.01
1838.83
1823.16
1864.29
1852.4
1825.88
1824.23
1839.14
1928.31
1820.25
1838.66
1886.86
1855.31
1821.25
1886.63
1936.48
1849.05
1826.52
1936.94
1918.8
1853.27
1818.05
1939.92
1863.36
1903.78
1840.26
1920.69
1893.12
1820.61
1865.36
1833.42
1821.81
1942.49
1863.39
1881.83
1898.09
1821.97
1864.38
1864.97
1850.36
1859.78
1927.68
1942.64
1891.6
1890.19
1890.33
1876.8
1890.29
1876.98
1898.63
1868.36
1885.12
1874.3
1905.27
1877.28
1836.94
1883.51
1842.77
1882.15
1901.51
1855.67
1867.33
1870.42
1900.09
1854.48
1906.19
1895.83
1822.47
1831.28
1864.6
1834.66
1863.16
1871.63
1871.51
1915.91
1849.56
1854.82
1876.43
1829.76
1861
1844.82
1928.28
1818.93
1897.22
1869.42
1884.99
1850.59
1875.11
1822.44
1865.37
1889.15
1877.15
1862.23
1887.51
1889.5
1877.93
1885.75
1850.55
1838.74
1886.88
1882.73
1882.93
1821.45
1897.13
1894.81
1886.34
1832.98
1878.03
1890.65
1867.12
1911.75
1901.62
1919.42
1879.92
1870.3
1944.5
1817.62
1890.89
1828.19
1883.21
1886.47
1870.89
1912.36
1850.42
1886.16
1850.94
1819.34
1825.51
1881.35
1838.13
1861.01
1846.95
1856.11
1926.95
1896.04
1822.04
1889.97
1855.78
1866.75
1826.75
1869.55
1861.53
1887.26
1876.09
1890.62
1850.88
1862.86
1863.54
1885.39
1900.75
1885.29
1831.13
1842.87
1933.16
1827.3
1931.1
1863.48
1864.32
1818.48
1849.63
1888.2
1876.64
1903.27
1879.59
1885.93
1859.64
1937.5
1889.27
1882.48
1897.27
1842.58
1826.17
1880.77
1920.2
1859.02
1873.09
1860.87
1817.52
1864.11
1913.84
1819.8
1849.16
1824.51
1899.32
1903.94
1882.96
1871.27
1919.73
1883.18
1880.73
1887.89
1923.91
1853.3
1862.73
1875.86
1893.25
1902.63
1884.21
1847.82
1890.09
1827.44
1905.72
1884.59
1873.85
1926.7
1895.06
1878.46
1857.49
1818.22
1901.34
1847.51
1884.37
1894.7
1904.26
1922.34
1824.95
1927.78
1884.73
1905.31
1883.29
1836.76
1837.27
1902.34
1893.48
1919.41
1946.23
1894.76
1903.86
1946.36
1919.32
1849.08
1821.27
1819.29
1848.11
1893.9
1887.49
1905.84
1891.11
1862.38
1881.91
1905.17
1869.62
1904.15
1887.66
1844.23
1872.72
1856.06
1889.83
1905.31
1867.27
1817.94
1846.31
1889.49
1880.9
1864.42
1946.27
1858.8
1825.14
1878.82
1843.17
1883.97
1888.77
1872.69
1843.02
1850.08
1822.01
1862.44
1856.08
1846.22
1862.43
1847.09
1821.51
1866.57
1899.42
1839.97
1845.39
1834.38
1909.76
1883.77
1894.41
1862.91
1885.72
1825.63
1861.9
1818.51
1886.56
1883.68
1876.98
1896.37
1860.71
1851.1
1818.87
1845.52
1895.55
1902.72
1857.23
1887.3
1849.41
1856.64
1821.71
1901.36
1915.03
1934.47
1899.96
1876.91
1869.99
1923.99
1917.64
1882.77
1871.36
1888.8
1855.89
1940.08
1923.04
1889.48
1939.96
1852.75
1868.33
1861.4
1885.15
1823.99
1885.08
1837.17
1906.61
1828.41
1892.71
1860.74
1849.19
1885.07
1874.35
1900.57
1883.54
1892.06
1946.01
1919.29
1931.79
1906.11
1876.03
1906.7
1846.03
1892.88
1854.1
1819.62
1829.79
1864.08
1866.88
1901.33
1860.85
1884.71
1848.99
1820.42
1909.76
1881.22
1916.77
1915.42
1873.32
1866.14
1899.98
1820.24
1866.08
1835.71
1842.99
1891.23
1871.45
1889.21
1850.13
1819.11
1943.52
1829.21
1885.81
1851.65
1851.65
1820.26
1908.55
1932.5
1873.52
1877.95
1869.39
1914.58
1891.92
1919.33
1863.69
1877.02
1890.81
1865.84
1891.81
1890.67
1820.2
1911.23
1854.27
1867.65
1820.11
1820.56
1853.95
1821.48
1917.75
1853.36
1819.87
1917.08
1944.04
1906.87
1860.79
1893.74
1857.5
1858
1904.22
1863.9
1862.17
1823.3
1906.14
1911.64
1857.31
1843.54
1946.42
1856.65
1839.69
1919.67
1885.33
1913.28
1913.81
1851.99
1901.24
1902.59
1849.22
1820.6
1849.3
1848.71
1858.06
1869.15
1910.61
1900.44
1868.01
1865.71
1875.25
1901.66
1876.36
1874.84
1885.3
1841.62
1919.18
1904.73
1908.66
1871.16
1881.66
1907.87
1861.68
1914.56
1825.11
1867.98
1904.26
1856.84
1855.01
1881.14
1885.86
1870.9
1880.92
1916.81
1820.33
1842.21
1818.86
1818.89
1887.45
1875.37
1852.57
1885.81
1874.86
1876.25
1892.03
1821.16
1819.4
1889.26
1884.44
1900.43
1867.67
1866.01
1916.38
1904.82
1899.52
1892.3
1828.95
1828.52
1853.94
1863.4
1933.08
1885.47
1899.65
1834.34
1885.76
1878.56
1869.32
1857.74
1928.96
1888.22
1839.64
1824.01
1848.73
1824.94
1895.62
1884.69
1820.96
1897.75
1899.45
1858.61
1817.88
1817.85
1857.38
1940.25
1856.02
1822.79
1895.94
1823.65
1852.32
1845.25
1868.08
1861.39
1890.02
1818.63
1886.87
1889.84
1861.97
1900.78
1870.42
1907.58
1884.73
1863.95
1848.45
1920.06
1837.34
1879.76
1893.34
1890.01
1874.35
1819.2
1911.46
1860.55
1866.5
1857.82
1818.52
1902.66
1867.45
1819.42
1854.74
1857.71
1819.91
1864.51
1858.67
1894.54
1903.66
1866.12
1944.03
1917.59
1874.22
1888.65
1848.54
1910.46
1868.96
1876.44
1891.52
1855.5
1841.1
1902.02
1857.71
1851.14
1883.92
1917.93
1895.2
1864.88
1896.11
1891.79
1828.07
1892.52
1827.95
1857.64
1855.87
1900.72
1910.74
1882.77
1819.48
1882.69
1881.86
1866.5
1843
1904.44
1889
1836.65
1900.02
1866.33
1898.54
1869.11
1876.03
1923.26
1899.02
1937.3
1863.94
1854.25
1860.71
1880.56
1904.33
1857.85
1826.49
1874.57
1821.91
1829.8
1886.92
1875.95
1856.12
1863.22
1890.9
1924.31
1878.28
1875.43
1886.56
1904.05
1890.67
1909.25
1914.56
1856.23
1854.79
1885.23
1894.24
1858.91
1859.34
1824.66
1942.36
1851.27
1883.5
1819.32
1936.26
1923.71
1850.7
1887.02
1856.62
1886.18
1928.29
1883.7
1858.01
1913.53
1819.87
1891.74
1845.62
1904.31
1856.3
1829.21
1944.95
1888.82
1900.14
1939.6
1870.87
1877.98
1900.87
1925.55
1920.75
1898.1
1822.14
1841.35
1857.12
1889.33
1938.97
1823.45
1861.88
1864.48
1858.4
1818.63
1888.29
1856.17
1854.45
1835.13
1885.15
1818.75
1884.4
1859.82
1852.74
1851.46
1936.17
1864.55
1883.37
1822.55
1821.47
1880.9
1881.21
1880.78
1886.56
1868.96
1876.3
1895.5
1931.17
1901.19
1858.13
1848.66
1894.02
1826.02
1888.31
1824.15
1842.33
1915.9
1851.82
1858.14
1907.78
1889.28
1881.42
1917.89
1906.74
1843.02
1881.7
1899.41
1834.86
1854.1
1838.88
1933.84
1882.66
1840.26
1844.84
1842.08
1876.33
1819.84
1870.25
1930.7
1848.4
1882.39
1840.7
1886.76
1898.38
1849.76
1822.51
1915.53
1885.81
1932.52
1858.39
1853.89
1859.97
1886.27
1842.39
1872.86
1820.76
1855.86
1858.74
1860.11
1942.95
1904.05
1895.14
1920.18
1864.51
1916.23
1885.12
1885.45
1840.27
1893.54
1822.68
1866.06
1860.16
1927.42
1939.32
1888.81
1858.76
1858.2
1823.09
1872.57
1888.16
1837.88
1880.76
1894.93
1824.83
1859.8
1863.42
1902.93
1869.66
1843.8
1854.3
1863.22
1851.13
1819.69
1892.76
1881.52
1858.33
1864.06
1824.96
1822.29
1904.64
1899.1
1847.72
1886.36
1818.95
1880.85
1878.29
1871.26
1901.24
1925.6
1852.89
1818.15
1856.38
1902.36
1893.46
1919.6
1946.59
1856.85
1826
1858.37
1822.1
1855.8
1857
1872.62
1889.17
1855.69
1853.73
1851.78
1856.43
1899.17
1824.68
1874.8
1934.53
1841.49
1851.12
1894.32
1855.94
1855.28
1941.33
1867.78
1820.19
1867.43
1861.67
1903.99
1862.01
1826.83
1854.44
1833.02
1817.9
1911.32
1887.28
1875.92
1851.46
1862.36
1887.53
1841.65
1819.52
1892.85
1861.72
1880.25
1887.99
1885.34
1823.03
1875.49
1826.46
1883.18
1857.12
1857.44
1880.35
1871.22
1820.03
1826.71
1939.86
1856.66
1830.13
1919.62
1904.66
1905.69
1864.67
1854.52
1845.63
1900.67
1888.01
1820.31
1936.08
1856.38
1910.85
1863.94
1823.24
1858.58
1845
1855.68
1821.08
1884.38
1916.01
1902.58
1897.22
1928.59
1934.09
1907.17
1880.92
1836.67
1856.74
1824.18
1851.42
1895.29
1891.04
1896.04
1856.05
1855.87
1836.26
1938.44
1920.97
1946.61
1865.33
1861.02
1818.14
1882.57
1823.8
1858.07
1869.78
1855.25
1878.78
1854.41
1880.92
1818.03
1888.4
1870.97
1867.57
1820.85
1897.07
1854.54
1893.56
1902.3
1946.32
1919.73
1944.33
1935.6
1871.14
1890.39
1818.55
1856.45
1915.35
1829.78
1860.37
1870.5
1860.56
1880.64
1879.88
1914.58
1852.69
1857.97
1868.37
1899.49
1858
1852.17
1886.05
1820.97
1880.88
1913.19
1821.37
1927.39
1902.14
1871.95
1879.28
1885.88
1855.41
1942.13
1853.72
1857.42
1929.58
1888.74
1884.97
1859.54
1925.66
1856.88
1933.96
1861.64
1818.4
1875.7
1844.08
1933.15
1833.94
1884.07
1856.3
1901.36
1892.62
1946.09
1919.24
1928.42
1903.41
1880.67
1873.41
1861.04
1884.96
1877.99
1857.57
1867.33
1821.06
1901.57
1860.9
1941.19
1869.03
1860.11
1856.69
1906.35
1925.06
1852.45
1901.02
1850.29
1914.57
1820.68
1875.84
1894.8
1865.18
1885.07
1918.65
1849.45
1858.6
1903.23
1847.7
1925.04
1854.37
1920.32
1861.98
1856.34
1880.56
1882.85
1858.53
1886.5
1919.01
1945.69
1894.31
1894.46
1903.29
1900.82
1887.06
1865.75
1856.81
1856.56
1828.45
1840.07
1819.21
1882.93
1819.87
1868.4
1885.06
1865.29
1858.62
1881.01
1866.33
1883.93
1913.21
1939.47
1915.6
1886.71
1942.31
1885.93
1837.01
1908.17
1866.5
1852.06
1866.16
1856.08
1849.24
1829.01
1904.01
1849.64
1828.77
1890.65
1918.41
1945.16
1934.13
1908.28
1878.4
1855.16
1855.33
1869.17
1885.99
1899.06
1904.74
1848.67
1823.41
1864.2
1857.61
1889.59
1891.12
1880.4
1859.66
1855.72
1881.34
1897.91
1849.28
1881.64
1848.63
1856.47
1841.6
1835.89
1861.57
1858.68
1859.96
1856.29
1942.97
1886.53
1916.54
1894.4
1903.55
1851.66
1866.81
1818.14
1857.8
1820.78
1830.3
1824.83
1891.9
1819.22
1876.55
1898.38
1888.76
1822.79
1899.44
1873.88
1845.37
1846.94
1909.1
1818.93
1842.85
1841.74
1926.14
1851.47
1831.1
1821.88
1856.56
1897.11
1856.44
1859.12
1898.71
1878.89
1924.79
1893.4
1869.81
1899.88
1876.98
1854.85
1855.79
1843.77
1890.06
1890.48
1901.84
1848.1
1868.89
1883.89
1927.98
1842.29
1856.37
1890.34
1855.89
1819.18
1907.04
1859.11
1892.21
1887.51
1896.14
1829.14
1861.38
1930.37
1856.3
1860.4
1893.91
1902.77
1946.06
1919.44
1910.71
1881.08
1900.89
1825.6
1884.87
1909.63
1847.87
1820.41
1882.26
1901.87
1820.35
1835.79
1856.67
1820.27
1821.02
1884.46
1819.78
1867.56
1863.42
1948.14
1876.92
1938.97
1825.2
1863.71
1858.02
1880
1818.96
1826.8
1895.7
1850.18
1880.25
1822.03
1911.52
1904
1929.04
1866.33
1830.02
1856.57
1824.93
1886.64
1858.41
1857.18
1886.44
1875.08
1862.85
1828.52
1856.06
1831.85
1896.73
1819.88
1821.64
1822.4
1886.21
1837.1
1884.69
1833.33
1892.37
1888.77
1877.48
1896.56
1881.47
1821.07
1848.62
1826.8
1831.31
1924.12
1869.22
1869.84
1879.62
1861.09
1826.18
1820.82
1889.23
1857.65
1892.62
1825.99
1895.19
1861.54
1859.5
1886.04
1874.42
1898.75
1887.99
1884.1
1858.42
1877.19
1890.48
1941.74
1855.26
1856.6
1922.03
1870.18
1891.73
1857.28
1858.79
1854.92
1916.32
1870.7
1919.29
1946.17
1903.38
1894.36
1856.74
1891.62
1904.57
1916.69
1852.95
1873.24
1884.48
1837.86
1872
1881.03
1857.3
1941.86
1915.32
1886.44
1886.54
1832.27
1856.99
1875.91
1856.19
1820.76
1902.49
1886.23
1876.53
1856.49
1869
1858.85
1876.69
1819.35
1883.46
1825.18
1867.82
1939.01
1937.56
1910.39
1904.28
1855.49
1885.33
1829.97
1861.27
1857.84
1863.25
1839.05
1857.04
1854.81
1856.21
1838.78
1915.5
1881.65
1921.64
1922.62
1887.27
1847.04
1941.12
1918.54
1903.6
1847.53
1856.48
1891.11
1883.46
1893.44
1944.53
1838.42
1856.82
1909.69
1819.83
1844.4
1917.44
1858.23
1882.13
1912.62
1874.32
1820.73
1923.32
1882.95
1849.87
1854.78
1855.69
1913.55
1932.38
1858.31
1925.4
1878.21
1863.94
1856.9
1909.62
1857.07
1859.79
1857.38
1821.6
1853.94
1864.81
1886.01
1853.51
1882.43
1820.47
1890.01
1888.82
1899.12
1874.91
1888.23
1883.99
1873.37
1882.51
1844.95
1892.35
1897.22
1825.3
1862.93
1856.48
1925.14
1860.49
1864.43
1914.76
1941.17
1885.72
1941.15
1914.49
1885.25
1833.79
1869.17
1900.58
1848.94
1891.88
1878.59
1877.7
1862.32
1868.72
1856.83
1823.43
1930.93
1899.78
1862.89
1911.53
1856.69
1873.24
1907.85
1942.3
1900.91
1886.29
1867.16
1855.43
1837.27
1824.58
1882.68
1884.71
1873.84
1906.73
1874.49
1849.31
1861.59
1905.46
1854.98
1937.24
1819.96
1818.8
1866.71
1856.58
1817.6
1946.86
1822.32
1892.34
1837.43
1873.23
1888.51
1902.65
1888
1898.19
1923.79
1914.67
1858.62
1887.32
1915.17
1847.27
1855.83
1881.92
1847.88
1859.04
1856.94
1857.86
1934.41
1899.78
1862.29
1865.45
1940.29
1856.25
1897.22
1818.7
1857.03
1833.54
1857.07
1857.86
1823.27
1889.11
1902.25
1830.08
1887.51
1867.06
1863.35
1894.87
1819.1
1869.71
1904.56
1856.71
1819.31
1887.14
1856.34
1901.81
1879.37
1858
1859.57
1890.97
1818.56
1927.52
1850.26
1901.12
1862.31
1914.53
1885.44
1941.07
1884.86
1890.85
1842.36
1857.16
1856.89
1856.52
1857.86
1899.16
1903.53
1848.71
1857.55
1871.91
1848.27
1848.81
1865.66
1862.77
1846.73
1886.57
1885.12
1857.5
1856.29
1858.03
1902.21
1824.69
1857.33
1857.26
1872.29
1915.23
1821.24
1872.44
1867
1852.1
1912.39
1881.89
1885.49
1913.86
1824.46
1923.84
1853.53
1892.12
1904.11
1856.68
1876.99
1898.81
1877.75
1856.75
1891.44
1897.25
1870.43
1820.31
1858.02
1913.01
1929.97
1900.39
1821.24
1895.19
1914.99
1861.63
1817.91
1858.69
1859.37
1854.99
1892.45
1819.08
1832.24
1854.67
1849.57
1859.13
1881.34
1859.79
1818.28
1836.57
1869.44
1916.3
1901.82
1938.89
1892.81
1892.4
1910.47
1888.89
1888.12
1940.61
1892.86
1818.06
1860.26
1932.06
1856.78
1856.29
1818.49
1894.05
1855.3
1855.71
1862.35
1831.22
1873.02
1939.07
1895.73
1823.11
1940.64
1886.56
1853.15
1862.06
1923.74
1899.16
1851.94
1833.42
1902.2
1902.85
1856.53
1877.59
1856.25
1856.77
1859.2
1822.81
1826.46
1905.78
1854.84
1898.35
1822.14
1885.1
1907.47
1906.94
1877.66
1821.19
1884.23
1850.51
1858.12
1849.57
1857.02
1856.78
1842.87
1819.41
1858.27
1875.43
1890.28
1901.7
1944.71
1867.86
1911.37
1856.76
1850.06
1856.97
1880.4
1865.58
1914.67
1901.38
1872.99
1861.44
1869.73
1849.27
1898.34
1882.52
1934.12
1880.24
1912.7
1891.43
1880.27
1895.76
1891.3
1855.86
1877.73
1882.39
1872.76
1857.17
1875.88
1896.06
1884.75
1892.6
1850.78
1818.22
1865.23
1887.38
1856.89
1861.29
1839.05
1884.63
1882.33
1859.15
1890.43
1938.53
1895.31
1888.22
1878.06
1890.24
1854.76
1856.81
1849.11
1886.33
1849.79
1886.09
1898.44
1818.48
1829.97
1903.35
1855.45
1858.61
1859.06
1826.88
1830.61
1890.94
1889.4
1850
1902.93
1856.59
1856.18
1855.97
1858.49
1863.38
1828.99
1856.92
1923.32
1857.95
1837.51
1880.74
1926.63
1870.93
1819.01
1909.03
1873.77
1857
1931.69
1899.01
1856.28
1856.01
1880.91
1945.32
1903.99
1832.4
1841.72
1856.63
1865.69
1927.05
1858.01
1899.33
1868.43
1833.46
1856.99
1877.49
1904.29
1854.35
1855.77
1845.82
1894.71
1862.42
1861.29
1893.83
1857.35
1856.63
1915
1849.48
1851.67
1852.07
1857.1
1866.28
1917.41
1935.25
1889.47
1873.13
1857.98
1856.98
1856.54
1922.76
1932.5
1824.59
1863.76
1911.3
1850.74
1834.28
1850.61
1905.14
1887.78
1914.69
1947.29
1888.16
1856.75
1858.06
1883.22
1842.97
1856.93
1847.62
1857.98
1906.02
1857.07
1901.13
1865.46
1938.46
1857.38
1820.45
1856.95
1855.92
1818.3
1879.69
1877.78
1819.38
1829.69
1864.22
1903.12
1865.8
1872.37
1845.76
1886.4
1869.52
1819.33
1857.71
1856.63
1883.82
1914.29
1818.08
1886.97
1916.46
1887.63
1821.93
1857.73
1857.85
1857.28
1909.71
1856.87
1871.44
1857.88
1833.81
1868.06
1911.26
1857.61
1859.74
1860.46
1827.61
1820.75
1926.31
1822.07
1859.24
1870.15
1860.08
1887.95
1818.75
1898.91
1862.23
1925.24
1871.6
1888.53
1869.83
1887.46
1858.83
1859
1888.89
1857.51
1942.37
1880.72
1891.5
1847.21
1883.19
1862.47
1819.06
1883.22
1858.95
1851.88
1862.07
1857.86
1835.15
1856.39
1863.13
1872.61
1856.82
1857.54
1819.25
1891.35
1931.36
1818.46
1818.49
1890.01
1858.71
1893.79
1857.33
1889.09
1877.55
1877.29
1877.95
1819.76
1823.97
1897.33
1853.13
1944.45
1857.9
1829.63
1938.39
1823
1913.07
1924.07
1889.78
1857.33
1887.72
1862.03
1888.31
1868.5
1899.83
1860.59
1861.22
1886.92
1855.7
1884.63
1855.95
1902.47
1846.68
1877.17
1902.5
1881.01
1868.81
1857.29
1856.07
1857
1861.11
1857.48
1905.71
1825.96
1881.97
1913.08
1858.43
1860.65
1875.86
1929.65
1868.2
1854.76
1856.62
1862.08
1945.83
1862.53
1875.23
1857.61
1824.58
1857.13
1861.23
1818.98
1854.95
1860.96
1923.91
1883.1
1914.3
1885.2
1940.74
1857.61
1857.49
1860.06
1856.36
1849.26
1880.01
1898.17
1859.09
1872.01
1858.89
1819.24
1900.15
1820.09
1857.47
1855.31
1840.45
1831.01
1905.36
1857.52
1862.68
1863.27
1841.49
1856.13
1862.5
1855.65
1817.7
1851.14
1872.73
1870.73
1868.84
1859.52
1820.18
1820.07
1819.52
1914.92
1819.94
1920.25
1900.42
1900.87
1858.42
1860.45
1922.9
1902.36
1903.86
1907.8
1835.86
1846.38
1817.7
1820.18
1857.4
1857.09
1884.46
1833.83
1862.84
1864.85
1860.85
1825.96
1884.44
1917.24
1857.26
1856.05
1858.34
1863.99
1888.11
1876.47
1862.91
1890.74
1880.57
1854.14
1885.4
1865.15
1850.2
1857.58
1895.17
1889.16
1877.31
1846.24
1892.89
1854.71
1840.2
1881.34
1832.05
1906.1
1886.55
1875.36
1875.29
1914.67
1876.47
1885.49
1941.64
1886.59
1848.46
1848.92
1887.21
1894.04
1899.32
1886.8
1944.28
1900.7
1882.42
1911.69
1867.37
1878.41
1876.42
1857.2
1886.84
1855.82
1932.86
1916.72
1845.82
1853.69
1875.56
1875.56
1923.45
1857.45
1831.14
1914.78
1890.39
1933.38
1859.95
1857.17
1888.26
1875.51
1827.61
1904.83
1853.13
1882.6
1875.32
1905.24
1930.26
1900.44
1891.71
1945.93
1918.95
1906.5
1895.83
1860.42
1824.15
1823.72
1856.99
1886.1
1906.5
1850.22
1902.76
1857.93
1823.68
1820.76
1818.49
1880.97
1908.38
1893.53
1820.37
1818.68
1860.45
1867.25
1887.31
1857.19
1887.04
1883.92
1855.93
1857.42
1855.79
1921.84
1856.25
1896.24
1928.84
1829.52
1903.25
1859.06
1947.82
1867.91
1822.63
1893.29
1861.59
1858.79
1853.34
1888.38
1862.89
1819.2
1826.9
1922.26
1891.56
1885
1859.46
1935.37
1857.09
1895.36
1854.41
1835.73
1827.67
1884.33
1873.45
1851.38
1855.56
1892.76
1854.34
1826
1852.91
1871.8
1836
1891.41
1827.07
1862.97
1834.88
1847.95
1866.27
1829.11
1906.68
1834.18
1842.87
1861.37
1857.35
1856.93
1854.8
1867.37
1875.59
1935.15
1894.48
1862.1
1907.28
1860.26
1863.39
1884.18
1913.46
1939.91
1822.63
1848.68
1876.46
1888.56
1824.17
1868.15
1857.42
1855.84
1827.19
1856.93
1936.04
1840
1832.83
1916.69
1886.53
1892.29
1927.85
1822.76
1899.5
1909.53
1857.39
1944.05
1886.25
1849.21
1867.01
1831.1
1905.2
1836.26
1923.13
1855.57
1865.74