/*--------------------------------*- C++ -*----------------------------------*\
| =========                 |                                                 |
| \\      /  F ield         | OpenFOAM Extend Project: Open source CFD        |
|  \\    /   O peration     | Version:  1.6-ext                               |
|   \\  /    A nd           | Web:      www.extend-project.de                 |
|    \\/     M anipulation  |                                                 |
\*---------------------------------------------------------------------------*/
FoamFile
{
    version     2.0;
    format      ascii;
    class       volScalarField;
    location    "2000";
    object      k;
}
// * * * * * * * * * * * * * * * * * * * * * * * * * * * * * * * * * * * * * //

dimensions      [0 2 -2 0 0 0 0];

internalField   nonuniform List<scalar> 
26307
(
0.00325134
0.000395025
0.000910979
0.000228905
0.000759146
0.00114365
3.74888e-06
0.00660479
0.000195138
0.0057704
0.00225389
0.00171566
0.000414812
0.000549209
6.10546e-05
0.00035782
0.00156044
0.000147831
0.000514456
0.00685715
0.00441638
0.00243618
0.000258365
0.000286609
0.000223002
0.00438781
0.00530516
3.19345e-05
0.00100279
0.0046006
0.000206651
0.00757339
0.000214478
0.0017884
0.00195265
0.000971674
0.00474834
0.000792041
0.00121049
0.00698377
8.44151e-05
3.48643e-05
0.00289437
0.000179722
0.000603776
9.17177e-05
0.00134738
0.00564169
0.00695351
0.000225846
0.000131946
0.000283347
0.00412536
0.00119173
0.000935675
0.00183503
0.000857367
0.000304196
0.0040243
0.000956921
0.000207135
6.45364e-05
5.55815e-05
0.000149856
0.00717026
3.14263e-06
0.00395501
0.000387675
0.00116017
0.00435512
0.00967113
0.000161958
0.00369092
0.000114841
4.79435e-05
0.00375954
0.00156454
0.000393571
0.00323482
0.00107043
0.000111715
0.00311403
6.70623e-06
0.00778815
0.00309512
0.00470877
0.00153824
0.00213165
0.00350455
0.000105357
0.00362028
0.000213338
0.000409284
0.000405871
0.00112763
0.0049416
5.70777e-06
2.58897e-05
0.00587708
0.00156544
8.6608e-06
0.000173022
0.00318871
0.00338929
0.000925168
4.59323e-05
7.84261e-05
0.00186463
0.00362178
0.00155068
0.00866163
5.65918e-05
0.000962312
0.00938206
0.000226035
1.48348e-05
3.31882e-05
0.00090902
0.00705238
0.00321605
0.00401641
0.000869116
3.978e-05
2.44407e-05
0.000131385
8.658e-05
0.0101552
0.00021609
2.65383e-05
2.51393e-06
2.82163e-06
2.40779e-07
0.00735083
0.00056158
0.00234883
0.00320093
0.0043714
0.00355089
0.00508381
0.000650491
0.00318427
0.00207894
0.00157591
3.31953e-05
0.00277681
0.00879654
0.00516298
0.000652182
0.000134441
0.000840382
0.00804911
0.000364578
0.000890976
0.00427389
0.00668601
0.00633802
0.000276866
0.000167858
0.000406945
0.000699223
0.0014358
0.00411635
0.00364482
0.00617958
0.00373274
0.0083305
0.00663909
0.00826071
0.000132879
0.00736463
0.00612757
0.00517505
0.00361029
0.00306411
6.74304e-06
0.000315922
3.58811e-06
0.00362966
0.0053683
0.00917264
0.00152316
0.000445256
0.00639217
0.000147399
0.00107931
0.00160049
0.000576509
0.000747572
3.10309e-05
0.00111945
0.0010136
4.42691e-05
0.000381679
0.00382056
0.0010558
0.00135293
2.93885e-06
0.0104044
0.000324457
0.00401296
6.70211e-06
0.00304276
0.000650772
3.87832e-05
0.000552253
0.00322833
0.000485565
5.61671e-06
0.006112
0.000236753
0.00189398
0.00530201
0.00139901
1.53612e-05
0.000530948
0.00672634
0.00207404
0.00611371
0.00598768
0.00010597
0.00447254
0.000242237
5.12179e-05
0.00633806
0.00111522
0.00354215
0.000149083
0.00570392
0.00882277
0.000561619
0.0050779
0.00099841
0.000140216
0.000641853
0.00278104
0.000847384
0.00374922
0.00037711
0.000344542
0.00230992
9.02229e-06
0.000116661
0.000400135
0.00420509
0.00467414
0.00153415
0.0079405
0.00438631
0.00480508
0.00415048
0.00466807
0.00408417
5.06068e-07
1.5339e-06
1.14982e-05
5.20407e-06
6.9271e-06
4.369e-05
2.14173e-05
0.00535652
0.00330168
4.08077e-05
0.000331983
0.000368037
0.00501832
0.000214372
0.00353802
0.00380835
0.00305474
0.00374449
0.00393486
0.00760721
0.00736641
0.000113275
0.00535873
0.000198425
0.00128437
0.000213246
0.000166052
0.000293579
0.00282553
0.00357079
0.00843477
0.000121203
0.000132256
0.00747803
0.0029092
2.79218e-05
4.45068e-05
0.00472227
0.00036768
2.27932e-05
0.00315229
0.00577869
0.00606559
0.00584448
0.00068667
0.000635822
0.00502873
1.46485e-06
0.00592889
0.00111151
0.00684901
0.00611889
0.000215277
2.09189e-05
0.000138121
0.000549866
0.00207773
2.20202e-06
0.00364847
8.85859e-07
0.00207518
0.00118756
0.000219341
0.00011463
1.18805e-05
0.00239856
0.00480811
0.000187806
0.000446257
0.00655695
0.000170177
0.0038917
0.000418028
1.20576e-05
0.000441794
0.00850443
0.00396563
0.00507091
0.00447146
0.000941703
6.89315e-07
0.00534156
0.00665298
1.55841e-05
0.00351675
0.00252725
0.00553365
0.00495792
8.64678e-06
0.000372784
0.00328005
0.00436103
0.000147222
0.00425554
0.004902
0.005775
0.00592711
0.00573477
0.00438891
0.000880793
0.000187125
0.00104773
0.0059674
0.00629785
0.000593655
9.15432e-05
0.000238122
0.00294349
0.00256637
0.00124864
0.00445115
8.26558e-05
0.000121799
0.000196163
0.00171739
0.00408737
0.00032429
0.0049552
0.00542601
0.00696011
0.00139202
0.0064851
0.00660792
0.0041941
0.0036442
0.0057011
0.00532722
0.000338616
0.00952739
0.00224397
4.20713e-05
0.000116884
3.89273e-05
0.00784329
0.00418992
0.00549923
0.0048877
0.00337904
0.00403738
0.00467538
0.000843573
0.00087808
0.00907163
0.00393574
0.000159686
0.000636562
0.000995668
0.000371169
0.000684038
0.000220354
0.000863137
0.00235159
0.000880215
0.00549252
0.00298226
1.74774e-07
0.00562649
0.000128831
0.000188953
0.000353515
0.00348635
0.00396579
0.000233584
0.00081714
0.00020699
3.65972e-05
5.50916e-05
0.00818381
5.13812e-05
2.08137e-05
2.96256e-05
6.25859e-05
0.00658686
0.00369856
0.000157069
0.000206904
0.00330563
0.000214926
0.00321213
0.00168075
0.00596915
0.00401543
1.54786e-05
0.00662867
0.000178345
0.00348577
0.00412756
0.00442469
0.000393021
0.00418393
0.000105175
0.00159068
0.00469039
0.000104511
0.00164181
0.00352201
0.000645914
0.00329521
0.00467368
1.34762e-06
0.00834567
0.00100772
0.00341287
0.00281668
0.00568371
0.00172469
0.000852232
1.32057e-06
0.00161017
2.56992e-06
0.00028408
0.00231564
0.00265104
0.00540675
0.000152686
5.57463e-05
7.83546e-05
0.000580995
0.0024897
0.00070513
0.00471054
0.00649354
0.00355517
0.00303783
0.0026852
0.00134928
0.000124383
0.000421322
0.00713085
0.000336954
1.7571e-05
0.000753024
0.000603001
0.00193372
0.00496202
6.41253e-05
0.00482775
0.00229714
0.00417874
0.00555683
0.00745382
0.000139343
0.000255786
0.00869166
0.00670218
0.00337472
5.32953e-05
4.57731e-05
0.00312719
0.00455242
0.00377598
1.52029e-08
0.00688097
0.00588532
0.00345482
0.0017564
0.00441357
0.00361613
1.57579e-07
4.99423e-08
2.25546e-06
2.05993e-06
0.00433507
0.000299853
2.34564e-05
0.00805846
0.00698956
0.000879401
6.86433e-05
0.000936056
0.00641569
2.00724e-05
0.000396945
0.000441331
2.15405e-05
0.00622237
0.00839718
0.000111164
0.00248069
0.00545466
0.00734931
0.00186346
5.87642e-06
0.00607951
8.41814e-05
0.000529147
0.0042438
0.000205558
0.00368814
0.00523297
0.00424878
0.00702741
0.00108029
0.00712997
4.01472e-05
0.00226114
0.000148125
0.00614769
2.97841e-05
0.00526036
5.0004e-05
0.000542157
0.000120624
0.00292248
0.00239685
0.00167187
0.00187538
2.98823e-05
0.00199889
0.00232658
0.00796304
0.000701502
0.00140406
0.00690574
5.11033e-05
0.000667898
0.00182799
0.00472215
8.72349e-05
0.000180256
0.00130002
0.00108241
8.69792e-06
8.54769e-05
0.000196297
0.00390502
0.0044115
0.000206046
0.00372351
0.00375849
4.47198e-05
1.38698e-05
2.90309e-05
0.00587121
0.00449502
0.00643256
0.00013339
0.000134563
0.000286611
0.00649302
3.92918e-05
2.20815e-05
0.00123567
0.00436097
0.00899233
0.00646497
2.25255e-05
0.000198696
0.00384067
0.00328647
0.00637925
4.56102e-05
0.00348215
0.000105625
1.71837e-05
4.24868e-06
3.79099e-07
3.50743e-07
1.21348e-08
2.18743e-08
0.0041648
0.00390399
0.00987887
0.00549582
0.00852048
0.00324932
0.00204729
0.00018791
0.00424005
0.00782543
6.15537e-06
0.00588432
0.00381895
0.00368942
0.00753201
0.00397162
6.97223e-05
0.00024409
0.00313329
0.00695368
8.46916e-05
0.00326294
0.0037582
0.000152606
0.00328333
0.00257428
0.00221607
0.000307939
0.00524721
0.00176247
0.00392333
0.00019427
0.00289794
0.0051213
0.00714541
0.00414062
0.00305685
0.00025368
0.00333264
0.00710079
0.000290548
1.02525e-05
0.00243702
0.0034513
0.00343547
3.8935e-05
0.00315381
8.25215e-07
0.00356627
1.46001e-05
0.00339042
1.5934e-05
0.00321431
0.00600306
0.00195199
0.000453132
0.000185619
0.00384982
0.00117525
4.00652e-05
2.79769e-05
2.59366e-05
0.0011833
9.84178e-05
0.00105966
0.00736098
0.00090659
0.0042924
0.00825465
0.00414201
3.21898e-06
0.000132576
0.000944279
0.000346943
8.50139e-06
0.00140074
0.00374491
0.00663953
0.00521681
0.000218181
0.00647801
0.000407345
0.00174927
0.000649516
1.5438e-05
1.05348e-06
0.00197204
0.000243343
0.00733637
7.36527e-06
0.00494458
0.000164789
1.60914e-05
0.000662396
0.00614367
0.00779734
0.00686277
0.000442244
0.00514686
0.00577858
0.0058618
0.000845028
0.00132875
0.00479479
0.00239238
0.00390955
0.00499606
0.000293877
0.00633108
0.000890272
0.0079533
0.00233357
0.0073254
0.00046861
0.00112628
0.00747694
0.00319763
1.17065e-05
0.00310521
0.000389928
0.00244537
0.00380524
0.00315522
0.0032614
0.00546575
0.00220554
0.00302001
0.000732124
0.00619628
0.000562851
0.00790493
0.00311146
0.0035661
0.00304179
0.00304528
0.00155031
0.00115649
0.000795538
1.09786e-07
0.00458256
0.00172006
0.0062211
0.00440186
0.00122776
0.000744243
0.00186404
0.00414242
0.000130905
0.0037725
0.00549688
2.3575e-08
5.09933e-05
2.90213e-05
0.000631302
0.00685296
0.00452792
0.0053387
0.00424092
0.00427158
0.00592245
0.00122943
0.00101408
0.000556085
0.0016097
0.000321441
0.00207029
0.00159717
0.00558158
0.000205557
0.000175554
1.53573e-06
0.00195154
0.000171076
0.000350794
0.000335102
0.000370988
0.00943953
0.00338191
0.000278864
2.38751e-06
0.00401351
0.000213109
0.00483362
0.000467522
0.00193383
0.00395577
0.00174008
0.000543388
0.00358465
0.00263073
0.0023092
0.00728894
0.0080163
0.000759365
0.00337114
7.78752e-05
0.00170525
0.00299226
9.22513e-05
0.000233498
0.00662172
0.00222997
0.00778423
0.00391884
0.00463566
0.00338089
0.00448874
0.000576631
0.00473707
0.00557333
0.000669031
0.0001586
9.4465e-05
0.00347258
0.000285538
7.96773e-07
2.32846e-05
0.00147323
0.00128078
0.00245914
0.00138878
0.00927286
0.00665122
0.00187903
7.01143e-08
0.0044826
0.00524934
8.49633e-05
9.55182e-07
0.00139423
0.00502898
2.18532e-05
0.00311544
0.00751117
0.0061669
0.000404262
0.00361036
0.00433695
0.000120511
0.00326924
0.00439933
0.00317837
0.000898511
0.00449179
0.0033775
0.000405449
0.000674609
9.34979e-05
9.10052e-05
0.00158837
0.00399877
2.14407e-07
2.28964e-05
0.00367597
0.0102295
1.31974e-05
0.00481833
1.06261e-06
8.92624e-08
5.75161e-08
1.37911e-06
5.98637e-06
3.74097e-05
3.01574e-05
6.66495e-06
0.00178251
0.00427358
0.00672563
1.78195e-07
0.00176155
8.96836e-05
0.000798027
0.00481504
0.00484885
0.00855534
0.00166345
0.000162461
4.59294e-05
0.000770628
9.62532e-06
0.00862498
0.000112089
0.000187207
0.00722497
0.00355643
0.000750725
0.00516451
0.000139719
0.00695713
0.00382046
2.27091e-06
0.0033143
0.00360874
0.000538601
0.000165761
0.00400547
0.00355044
0.00418051
0.000373229
1.0671e-06
0.00205439
0.000603359
2.92196e-07
0.000107351
0.00011098
0.000501685
0.00641728
0.00371535
5.16761e-05
0.00370501
0.00102804
0.000186173
0.00694372
0.00294029
0.00547547
1.04928e-05
0.00224091
0.000112886
0.000199759
0.000548538
0.00274998
0.00663714
0.00415326
0.00844408
7.15185e-06
0.00102667
0.00011417
0.00697625
0.00040786
0.00328858
0.00168382
0.000514453
0.000915796
0.00035904
0.00966482
9.1511e-06
0.000652824
0.00486164
0.00766791
5.13297e-06
0.00590605
0.00561599
0.00370128
0.00210907
6.44968e-05
0.00922667
0.0014009
0.00504379
0.00142053
0.000671637
0.00652453
0.00339638
0.00595817
0.000668932
0.00094742
0.00192814
0.00120358
4.97821e-05
0.000117275
1.31162e-05
0.00487883
0.00298223
0.00137271
5.49415e-05
9.33114e-06
6.83326e-06
1.36832e-06
4.41094e-07
1.10069e-05
0.00704474
0.00380122
0.00738745
0.00205327
0.000388306
2.04279e-05
4.68215e-06
0.00333446
0.000498044
0.00130919
0.00334781
0.0012035
0.00619469
0.000232845
0.00299089
0.00609581
0.00136331
0.00554352
0.00455836
0.00239361
0.00344996
0.00117962
0.0011501
0.00476937
1.48366e-05
0.000357267
0.00731355
0.000188598
0.000474387
0.000456778
0.00225093
0.00265215
0.000777859
7.407e-05
0.000265698
0.00514936
2.79007e-06
0.000622581
5.78698e-05
0.000350526
0.00021131
0.00192517
0.0020595
0.00416994
0.000286926
0.000183517
0.0030673
0.00866737
0.00657504
0.00615077
0.000109599
0.00240285
0.00353928
0.000188462
0.000129792
0.00277898
0.00013169
0.00367437
0.00023704
0.00658685
0.00261443
0.00018308
0.00052421
0.000188987
0.00587844
0.000573488
0.00617055
0.00626556
8.73855e-06
0.00012987
0.000603482
0.000192819
0.00845369
0.00374955
0.00462119
0.00287908
0.00455028
0.00421588
0.00414247
7.66848e-06
0.00335392
0.000135372
0.00448858
7.9032e-05
0.00499641
0.000125667
0.00718804
0.00648684
0.00019036
0.0067056
0.00273832
0.00330443
0.00773993
0.000391091
0.000336862
0.00370729
1.31042e-06
0.0003423
0.000127396
0.00630364
5.50908e-06
0.000329225
5.05358e-07
0.00735832
0.00240394
0.000779615
4.45883e-05
0.000274037
1.90132e-05
0.000130957
0.00351721
0.00989411
6.8894e-05
0.00425876
0.000446692
0.00852314
0.00031581
6.09883e-05
0.00385223
0.00351597
0.00965658
0.0092799
3.70589e-05
0.00339865
0.000709075
0.00189062
0.00219885
0.000854529
0.000738983
0.00301793
0.00120677
0.00263153
0.000936667
0.00380476
0.00724102
0.00299408
0.00723439
0.000508239
0.000154959
0.000418561
0.000708932
0.00288459
0.000523045
0.00228262
0.000965171
0.00334863
0.00402067
0.00089073
0.000165815
0.00555794
0.000126908
8.24029e-06
0.00507157
3.91052e-05
0.00383528
0.00135285
0.00145449
0.000356502
0.000518052
0.000525094
0.00659989
3.98945e-06
0.00430675
0.00440223
0.000559841
0.00210792
0.00153278
0.00209468
0.00241327
5.11793e-06
0.00241631
0.00581561
2.33003e-05
0.00258374
0.00240209
0.00161949
0.00164178
0.00382876
0.00193707
0.00132509
1.66537e-05
0.00242822
0.00853289
0.000542702
3.52784e-05
0.00339115
0.00299323
0.00409629
0.00283983
0.00302581
0.00358637
0.000794342
0.00256822
0.000389402
0.000353465
0.0039065
0.00278184
0.000293275
0.000313333
0.0020701
0.00173667
5.52714e-05
0.00581606
0.00285265
0.00700637
0.00438838
0.00414928
0.00188977
0.0022595
0.00261671
0.00124792
0.00878336
0.00124055
0.00812308
6.12717e-05
2.66658e-05
0.000173463
0.00265264
0.00412044
0.00184542
0.000194191
0.00832347
0.00188101
0.00221611
0.00396721
0.00127707
0.00113362
0.000584904
0.00221485
0.00516391
0.00392694
0.000100964
0.000141823
0.00235283
0.00340326
0.00847022
1.21303e-06
2.26713e-06
1.89962e-05
2.50769e-06
5.69758e-06
3.49699e-05
3.92095e-05
0.000355589
0.000152647
1.53673e-05
0.000935887
0.00510804
0.00744144
0.00298843
0.00215337
0.000215978
0.000358611
1.5046e-05
0.000331629
1.81303e-05
0.0033954
0.00253993
0.000174916
0.00561589
0.000844763
0.00109581
0.00556657
9.56405e-05
0.000107536
0.00207091
0.00375075
0.000437171
0.00288494
0.000446673
0.000610594
0.000659407
0.000998774
0.000212724
0.00265052
0.000990471
6.10394e-05
0.00303659
0.00400591
0.000581513
0.0056045
0.00288043
0.00141888
0.000135594
0.00183151
0.00390133
6.28314e-05
0.000472548
0.00275885
9.39672e-05
0.0029092
0.00258917
0.00694205
2.48808e-05
0.00108681
2.84039e-05
0.000724382
0.000497419
0.000282619
0.000246293
3.07876e-05
0.00365402
0.00349407
0.00825667
0.00244496
9.61835e-06
0.00261759
0.000160252
0.00308924
0.00799255
0.00268286
0.00244742
0.00303539
0.00479555
0.0027308
0.00267692
0.000417204
0.00277891
0.00362995
0.00356272
0.00137375
0.00529217
0.00436808
0.00434702
0.00327347
0.000168065
0.0019659
0.00121468
0.0021281
0.000946707
0.000490537
0.00771725
7.00216e-05
0.00014447
0.000384217
0.000735685
4.67009e-05
0.000982407
7.76098e-05
0.000644034
0.000176212
0.00360693
0.00185942
1.62199e-06
0.00203496
0.00218458
0.00475787
0.00162114
0.00343082
0.00799311
2.14393e-06
8.29905e-06
7.03146e-07
0.00092473
0.00471327
0.00624274
0.000324356
0.00116477
0.00188925
6.0503e-05
0.000935648
0.00316172
0.00245176
0.000731991
0.00401167
3.29678e-07
0.00252996
0.00304694
3.07205e-07
2.13276e-08
0.00302441
0.00831054
0.00431967
0.00335331
0.00347129
2.57251e-06
0.00347608
0.000142898
0.00383176
7.89742e-08
0.000564246
0.00296457
0.000470501
0.00208083
0.00244439
0.00352768
0.000325969
0.00577456
0.000474394
7.61429e-05
0.000228032
0.00392575
0.000682478
0.00395076
0.00299553
0.00317844
0.0082072
0.00451544
0.000108431
0.000560931
0.00340959
4.7837e-05
0.00252884
0.00490966
0.000516248
5.98929e-05
0.00246761
0.00114958
0.00623837
0.000651243
0.000936912
0.00160962
0.00038314
0.000240346
0.00429126
0.00550673
0.00161328
0.000113197
0.00392951
0.00104765
0.000321799
0.00416132
1.82389e-05
0.00311778
0.000184606
0.00104904
0.000693196
0.00100275
0.00216969
0.000199213
0.00212518
0.00245659
0.000198044
0.00258758
0.0036897
0.000118382
0.000143122
0.000297473
0.00152448
0.00182132
0.00095857
0.00950272
0.000853402
0.00110298
0.00737599
0.00212517
0.0021194
0.000122741
0.000249342
0.00324332
0.000318395
0.000518731
0.00731496
0.000731898
8.54817e-06
0.00349524
3.02375e-05
0.00300041
0.00178297
0.00193511
0.00247799
0.00352714
3.88013e-06
0.00180795
0.000224998
0.000104762
0.00267866
0.00190647
0.00285763
0.00686529
0.00574447
0.0103768
9.06552e-05
0.00342613
0.000122185
6.22061e-05
0.00195464
0.000393487
4.52475e-05
0.0034525
0.00626276
0.00748443
1.81431e-05
6.86271e-05
0.000559078
0.00341525
0.00633249
0.000425588
1.35305e-05
0.000966124
0.000368624
7.3583e-08
0.00185635
0.00457487
0.00120263
0.00094978
0.00318421
0.000949269
0.00381702
0.00141136
0.000171125
1.77868e-06
0.000137087
0.000142668
0.000454725
0.00252579
0.000107654
0.000695067
0.00711324
0.00302048
0.00304259
0.00270765
0.00318415
0.00111923
0.000266845
0.00300805
0.000160074
0.00474249
0.00276345
0.00330776
0.000453817
0.000717417
0.000511925
0.00104122
0.000223012
0.00060792
0.00131806
0.00090819
0.00419448
0.00448475
0.000191202
0.00457785
0.000194532
0.00207524
2.21038e-05
0.00207482
0.00137747
0.00638483
8.34442e-05
0.00332905
0.00679072
0.000184261
0.000414569
0.000841683
0.00350849
0.00416383
0.00106062
0.00141077
1.92785e-05
0.0073874
0.000591995
0.00777023
0.000305408
0.00422454
0.00451438
0.0048105
0.00242689
0.0060053
0.00379997
0.00641303
0.000123779
0.00356435
0.00519092
1.69147e-05
0.00113539
0.0032389
5.68527e-05
4.39512e-05
0.00613957
0.00589702
1.38624e-06
0.000562133
0.00652161
0.00372141
0.000307429
0.00610633
0.000516465
0.00307321
0.000296248
1.63102e-05
0.00375997
0.00128368
0.00713403
0.00461129
3.63292e-06
0.000399468
0.00116285
0.00151586
0.00263271
0.00337455
0.00323722
0.00179793
0.00121078
0.000102679
3.21369e-06
0.000305931
2.39999e-06
0.000666108
0.000412905
0.000252281
0.000624339
0.00032106
0.000580073
0.00237033
0.00276309
0.000272769
0.000440269
0.00724737
0.000855121
0.00714103
0.00308608
0.00138856
0.000458922
0.00256121
0.00228856
0.000414853
0.000215618
0.0007967
0.00064312
0.00375884
0.00679424
0.00251245
0.00625707
0.00207264
0.00371861
0.00355854
0.000485925
0.00630841
0.0062936
0.000506467
0.0065657
0.00316597
0.00238485
0.000105649
0.00386647
0.000613924
0.00391158
0.000421951
0.00390866
0.0025424
0.00377878
0.00173589
0.00162579
0.00185678
0.00174446
2.93318e-06
7.35763e-06
0.00209355
0.000222656
0.00749862
0.00510566
0.000195318
0.00186283
0.00061809
0.00325237
0.00145979
4.00421e-06
0.000473038
0.00371469
0.00152602
0.0013705
0.00298616
0.000219639
0.000416001
0.000336629
0.00164412
0.00194401
8.05123e-05
0.00410725
1.42883e-05
0.00703729
0.000603487
0.000342444
0.000451033
8.25273e-07
0.0071283
0.000466699
0.00117718
0.00316867
0.0036593
0.000529417
0.00880722
0.00197005
0.00203269
0.00421239
9.43226e-05
2.03091e-05
0.00308639
6.67255e-06
0.00644878
0.00262761
0.00411373
0.00251622
0.00206794
0.00212197
0.00250677
0.00015241
1.30244e-05
0.00361343
0.0014424
0.00184615
0.000379257
3.93722e-06
0.00211118
0.00384419
6.10888e-05
0.00525819
0.000186046
0.00440856
0.00229881
0.00432463
0.00113709
0.00187392
0.00218414
1.71899e-06
0.000370616
0.000178661
0.000186401
7.90768e-07
0.000121644
0.0037378
0.00058998
0.00379354
0.00526037
1.53323e-06
6.14753e-05
0.000147459
0.00450816
0.00162521
0.00196855
0.00631257
1.41341e-07
0.00312956
0.0020257
0.00513344
0.000490937
0.000150442
0.000746022
0.00233385
0.000575552
0.000587841
0.00101819
0.000326201
3.83062e-05
0.00168569
0.00812294
0.000723063
0.000940929
0.000103188
0.000559281
0.00809952
0.000207357
0.0045494
0.00118161
0.00238848
0.00275864
8.10662e-06
0.000132698
0.000319184
0.000810169
0.00336496
0.000307341
0.00979004
0.000479768
0.000103118
2.87289e-05
0.000197117
0.00549951
4.31428e-05
0.000120086
0.000169724
0.000446024
0.00644059
0.00692675
2.22284e-06
2.41978e-06
1.74542e-07
6.91382e-08
2.53995e-07
2.77314e-07
8.08424e-09
1.62906e-08
0.00823701
0.00333222
0.00315482
0.00778074
0.000117129
0.00032156
0.000942235
0.00032301
0.00297848
3.77929e-05
0.000144863
0.00225124
0.000267968
1.19029e-05
0.00688457
0.00134429
0.000144619
0.000186607
0.000642335
0.00239453
0.00101204
0.00633477
0.000276998
0.000239155
0.00220437
6.47517e-05
0.00220938
0.00533507
0.00227535
0.00800679
7.28891e-06
7.32197e-05
0.0035069
0.00222697
0.00390513
0.00444868
0.00274471
0.00054331
0.000121575
0.00219282
0.00597279
0.00456294
0.00100781
3.40228e-05
0.00218741
0.0052079
0.00263041
0.000125901
0.000133918
8.44683e-07
0.0012974
2.34296e-05
0.00507112
0.00212848
0.00307168
0.000430626
6.52828e-05
0.00122749
9.62992e-05
0.0020837
2.44272e-05
0.0026824
0.00440571
0.000112492
0.000291329
0.00435895
0.000386226
3.31614e-06
0.0023108
0.00327332
0.000192608
0.000657496
1.57738e-05
5.85171e-06
2.2835e-05
3.83399e-05
1.04363e-05
0.000154696
0.000871138
0.00307973
0.000277321
0.00653281
9.2214e-06
9.80917e-05
9.34494e-06
7.08893e-05
0.00248651
0.00581979
0.000220333
0.00137283
0.00132994
0.000406646
0.00519226
9.81848e-05
0.00527276
0.00152287
0.000869221
0.00738871
0.00242361
0.00285115
7.63996e-06
7.15076e-05
7.30512e-06
2.19053e-07
7.79827e-07
1.38678e-05
1.5684e-05
8.06781e-05
0.000948291
0.00555735
0.000128052
0.00356422
0.00274656
0.00433982
0.00399368
0.00333232
0.000945926
0.00701156
0.00012253
0.0072911
0.00352129
0.00108937
0.000495614
0.000309165
0.000451349
0.00306568
0.00340167
0.000345099
0.00348237
0.00260169
0.00800276
0.00868844
2.36777e-07
0.00493702
6.66313e-06
0.000223968
0.00354358
1.19713e-06
0.00358466
0.000367685
0.00739779
0.00185257
0.00349278
0.000675812
0.000222284
0.00286265
0.00341493
0.00407485
0.000254847
0.000147912
3.60684e-05
0.000869164
0.000181486
0.000108198
0.00432214
0.000133856
0.000138051
0.00346646
0.000733509
0.00372718
0.000370948
0.0030894
0.00336947
0.00475142
0.00367289
1.64792e-07
0.00172407
0.00301874
1.37167e-05
3.59214e-09
0.00106682
0.00251783
0.000119003
0.00256113
0.00258607
1.71272e-06
0.00313838
0.000399877
0.00489555
0.00116064
0.000787609
0.00391799
0.00184197
2.93838e-05
0.00480001
0.010549
4.38973e-05
0.000516357
0.000201321
0.000452025
0.00560597
0.000226319
4.69517e-06
0.00769307
0.00310104
0.00538457
0.00904247
0.0038939
0.000332428
0.000288435
0.000345915
0.00107629
0.00433218
0.000311139
0.000114086
0.00245015
0.003128
0.00262402
0.00304717
0.000505452
0.00032633
0.00112849
0.000139853
9.91246e-05
0.0010336
0.00295285
0.000633557
0.00322468
0.0028531
0.000150413
0.00155857
0.00673141
2.07927e-05
0.000414986
0.00128398
0.00102347
0.000796795
0.00326139
0.00694313
0.00119824
0.00330504
0.00149036
0.00165234
0.00423899
0.002308
0.00270077
0.000427748
9.85203e-05
0.00326285
0.0031306
0.000129664
1.81966e-05
0.00015547
0.000565775
0.00628184
0.00021079
0.000181623
0.000573376
0.000803109
0.00800261
0.00573279
0.00378671
0.00209972
2.13926e-05
9.56944e-05
0.000545118
0.00531623
2.87257e-05
0.00103903
0.00131674
0.00245154
0.000232811
0.00019397
0.00678378
0.00466702
0.00212249
0.00334128
9.94054e-05
0.000366253
0.00324959
0.000133683
0.000169463
0.00255369
0.000777558
0.000649214
0.00905225
1.1262e-05
0.00814923
0.00502086
0.000167944
0.00536198
0.000673274
0.00600261
0.00217703
0.00329516
0.000116677
0.00318666
0.000443457
0.000129187
0.00273846
0.000346273
0.00191986
0.000209014
8.07169e-06
0.00288075
0.00963995
8.84496e-05
0.00474944
0.00111509
0.00105042
0.000296413
0.0019927
0.00340942
1.55628e-06
0.00210224
0.00231135
0.00402658
0.00118523
0.000757692
0.00677655
0.003777
0.00743157
0.0039453
0.00364944
0.00292931
0.00237051
1.51355e-06
1.42874e-06
0.00369681
9.60839e-08
2.31722e-07
0.00258977
0.000115515
0.00185172
0.00100693
0.00104751
0.000685326
0.000309192
0.00676963
0.00249133
9.71855e-05
0.000362234
0.00452348
0.000544495
0.000317737
0.000147608
0.0021506
0.000140001
0.000315481
0.00585866
0.000239109
0.0030153
0.00109782
0.000324896
1.011e-06
0.000199416
5.54679e-05
0.00370182
0.000460823
0.000288916
0.00305094
0.0104771
0.00113797
0.000856409
0.00492267
0.000308381
0.00266189
0.00018011
0.000137721
8.81228e-05
3.12557e-05
2.32464e-05
7.94617e-06
0.00578696
0.00352793
0.00312714
0.000142461
0.000278063
0.00251427
0.00589213
0.00168272
0.00327062
0.00527742
0.00220363
0.00261707
0.00499538
0.00309911
0.000169316
0.000741212
0.00143818
0.00260798
0.0022262
0.00123461
0.000314224
0.00104441
1.64418e-08
0.00484736
0.00494538
0.000257223
4.67091e-06
0.00294718
0.00343524
0.00418733
2.94555e-05
0.00728938
0.000657677
0.00387978
2.14613e-05
0.000100923
0.00195377
0.000228918
0.00643619
0.00042138
4.93757e-05
4.86369e-05
0.00363559
4.76079e-08
0.0030777
3.14222e-06
0.00638465
0.000398425
0.00663562
0.00509566
0.000180312
0.000331293
0.000973734
2.32392e-06
0.000170002
0.000138627
3.38079e-05
2.80722e-05
2.8368e-05
0.000155916
0.00321105
0.00372701
0.00367819
0.000155953
7.1222e-05
0.00445057
0.00657635
0.00248567
0.000837049
0.00326626
1.08331e-06
0.00759408
0.0043807
0.00724171
0.000453521
0.00350052
0.000559306
0.00877122
0.00395144
3.82607e-05
3.5296e-05
0.00252079
0.000447999
0.00335386
0.0042039
0.000440738
0.000277231
0.000802285
0.0021407
0.00430841
0.00254205
0.000517658
0.000176912
0.000277664
0.000832572
0.00195609
3.88639e-06
0.0046851
0.00035081
0.00319863
0.00279844
0.000239385
0.00614574
0.00307974
0.00114862
0.000231555
0.000204626
0.000688326
0.000303201
0.00979078
0.00392172
3.51751e-05
0.00740488
0.00740122
0.00273129
3.64136e-05
7.39688e-07
0.00938489
0.0063802
0.00387235
0.000683938
0.00348937
0.00346988
0.000199071
0.0039084
0.00062739
0.00821486
0.000439254
2.73941e-06
0.00819553
0.00515398
0.000116507
0.000180184
0.000334939
0.00303587
0.0043117
0.00244139
0.000226155
0.00248935
0.0046745
0.00221058
7.18317e-05
0.00295777
0.00198455
2.25146e-05
1.68721e-06
1.59614e-06
1.67513e-07
0.00177061
8.5587e-05
0.000411761
0.00050168
0.00715351
0.000140285
0.00389584
0.00157387
0.00222548
4.63735e-06
2.62055e-05
2.97692e-06
0.0093118
0.00386286
0.00318774
0.00337579
0.000239358
0.00829681
0.000129557
0.000787998
0.00646269
0.0021006
5.755e-05
0.000490014
4.99385e-05
0.00486457
0.00463228
0.00244024
0.00381065
0.00366756
1.55963e-05
0.00083035
0.00257483
0.0021515
0.00353573
0.00490106
0.000112691
0.000162454
0.00876927
3.56244e-05
0.00384852
0.000450914
3.30675e-05
5.10752e-05
8.19959e-06
1.15835e-05
0.000150246
0.00324133
0.00625938
8.37405e-07
9.6552e-07
6.25139e-08
3.26606e-08
0.00694977
0.00338878
0.000195656
0.00394872
0.00669653
0.00640568
0.000994454
0.000164751
0.00183608
0.00891044
0.00723318
0.00837539
0.000410632
0.00322778
0.000190654
2.0108e-05
0.00510348
0.00580315
0.000109367
0.00614647
0.00611022
1.52557e-05
0.00426788
0.00351279
0.0025636
0.000569761
0.00125203
0.00206267
0.00558132
0.00427721
0.00376965
0.00379906
0.00107477
0.00208417
0.00242685
0.00018264
0.00442029
0.000309209
0.00358622
0.0035713
0.000123265
0.00236843
0.000979445
0.000163418
0.000310972
0.0038891
0.00351375
0.00542538
0.000474733
0.00187202
0.00310733
0.00358168
0.00429469
0.00373611
0.00594229
0.000210558
0.00975542
0.00534396
3.46842e-05
0.000162193
0.000237775
0.00217511
0.00354156
0.00727307
0.000206787
1.86349e-06
0.00353859
7.65591e-06
0.00633806
3.20244e-05
0.00252617
0.0029019
0.00260761
0.00707756
0.00502456
0.00327944
0.000497863
0.000706816
0.00139057
0.000265069
0.000109463
6.09078e-06
0.000227527
0.000165973
0.00350328
0.00645276
0.00499808
0.00547216
0.000692127
2.64879e-05
0.000627568
0.00688162
0.00112276
0.00238515
0.000291931
4.80005e-06
8.21575e-06
0.00519884
0.00696841
0.00298758
0.000818076
0.00334798
0.00017841
0.00337217
0.00526401
0.00290239
0.00393477
0.0015832
0.0019971
0.000443327
0.0018787
0.000281656
0.00330213
0.000143127
0.00354977
5.8201e-06
5.61386e-06
1.58348e-07
5.60573e-07
0.000163083
0.000373965
0.00502119
9.02468e-05
0.00250982
0.00568609
0.000163093
0.00352943
0.000354346
0.000167396
0.00558494
0.000123792
0.00415236
0.000249943
0.00733791
0.00391267
0.00341577
0.000443358
0.00240976
0.0073565
0.000462762
0.00355773
0.000445421
0.000937124
0.00324865
2.65576e-05
2.73105e-05
0.000126136
0.000112442
3.78718e-05
0.00617076
4.64512e-05
0.00723604
0.00614996
1.91703e-05
0.000339306
0.000275974
0.00302476
4.54678e-06
0.00834118
0.000297659
0.00174793
0.00345493
0.000514164
0.00910593
0.000305502
0.00604358
0.000689858
0.00813151
3.88888e-06
4.38888e-06
1.56816e-07
3.54789e-07
1.30211e-05
2.17387e-05
9.68143e-05
0.000114254
0.00234704
0.000215328
0.00199011
0.00506704
0.000290545
0.00363445
0.00085389
0.000626463
1.55311e-07
0.0023035
0.00297563
0.00554322
0.000122459
0.000116166
0.00633956
2.08092e-05
0.000295781
0.000922997
0.00330256
0.000220847
2.75702e-05
0.00386558
0.000344518
0.000303153
0.00945164
0.0011621
1.66286e-06
0.00213425
0.000134075
0.00194746
0.000372048
0.00309924
0.00781186
0.000356328
6.70416e-06
0.00105384
2.82645e-05
1.32481e-07
3.4881e-08
2.0448e-06
3.08628e-07
1.87821e-06
0.000222067
0.000307686
0.00753605
0.00744573
0.00792508
0.00435436
0.00651353
0.00327955
0.000803263
0.0030055
0.000772705
0.000338415
0.00248248
0.00299179
0.00053092
0.00253371
1.9386e-05
3.0642e-06
1.05367e-06
2.14854e-06
1.7492e-05