/*--------------------------------*- C++ -*----------------------------------*\
| =========                 |                                                 |
| \\      /  F ield         | OpenFOAM Extend Project: Open source CFD        |
|  \\    /   O peration     | Version:  1.6-ext                               |
|   \\  /    A nd           | Web:      www.extend-project.de                 |
|    \\/     M anipulation  |                                                 |
\*---------------------------------------------------------------------------*/
FoamFile
{
    version     2.0;
    format      ascii;
    class       volScalarField;
    location    "2000";
    object      kappaEff;
}
// * * * * * * * * * * * * * * * * * * * * * * * * * * * * * * * * * * * * * //

dimensions      [1 1 -3 -1 0 0 0];

internalField   nonuniform List<scalar> 
26307
(
1.24688
0.244575
0.241937
0.192117
0.258619
0.56488
0.030729
1.38121
0.107401
2.07495
0.115511
0.176697
0.256015
0.144613
0.0396943
0.142151
0.0953693
0.0763205
0.2566
1.45743
2.62749
0.441616
0.157649
0.152746
0.0791826
1.27977
1.7366
0.0359281
0.49812
2.6378
0.0984381
1.76428
0.106104
0.60231
0.729085
0.0673282
1.33091
0.332884
0.340355
1.38351
0.0586099
0.0410624
2.21173
0.131364
0.121494
0.0322179
0.531633
1.29546
1.88916
0.19021
0.0566995
0.247996
1.09804
0.408965
0.314702
0.158598
0.204665
0.14621
0.911837
0.334195
0.0540293
0.0457726
0.0440918
0.0788741
1.46763
0.0304277
0.33202
0.173438
0.0944382
0.89602
1.64402
0.0426535
1.61877
0.069963
0.0406556
1.09421
0.250319
0.107324
1.93998
0.177095
0.0394832
1.28362
0.0307968
1.50457
0.805392
1.10022
0.247902
0.164384
1.20781
0.0757165
1.64221
0.142273
0.138628
0.143129
0.117548
1.69795
0.0346907
0.0355466
1.79623
0.562255
0.0317633
0.116002
1.20644
1.22877
0.0859013
0.032882
0.035525
0.666883
1.21227
0.173623
1.78913
0.0394964
0.291027
1.93629
0.12379
0.0315047
0.0353941
0.102031
1.58525
1.20389
1.4374
0.228843
0.0342442
0.034174
0.0526364
0.0439046
1.7282
0.0463337
0.0325751
0.0307864
0.030835
0.0301456
1.44729
0.071489
0.363805
1.40045
0.960046
1.4043
1.57493
0.339213
1.38233
0.330006
0.0906819
0.0354895
0.647908
1.73265
0.974527
0.341309
0.0960773
0.308845
1.81804
0.0543718
0.445864
1.32367
1.52988
1.75943
0.199445
0.0372713
0.153955
0.365118
0.0954273
1.73246
0.0928006
1.47025
1.60209
1.29867
0.940066
1.36933
0.0610415
1.46796
2.15078
1.82296
0.521547
1.20455
0.0310494
0.220978
0.0307265
1.58724
2.06357
1.85598
0.0743358
0.0552545
1.97494
0.0432728
0.553222
0.170859
0.136564
0.342627
0.0401928
0.390854
0.353957
0.0319938
0.116642
1.7184
0.372433
0.152018
0.0302883
1.56341
0.0672271
1.20033
0.0305872
1.54757
0.0463271
0.038509
0.213544
0.0620669
0.250383
0.0306285
2.17691
0.174981
0.171779
1.60163
0.111535
0.0333539
0.389603
1.63572
0.268078
2.32119
1.54814
0.093035
1.72499
0.194404
0.0370018
2.22475
0.396177
1.30681
0.0909672
2.35797
1.82708
0.218128
2.62666
0.164488
0.0619332
0.14494
0.73249
0.47253
0.99105
0.233494
0.161821
0.161087
0.0312424
0.0566151
0.380031
2.63568
1.63569
0.124144
1.14678
0.97699
1.66568
2.05766
0.269195
1.71806
0.0302039
0.0304003
0.0324159
0.0313306
0.0316533
0.0395864
0.0309253
2.37864
0.994948
0.0328169
0.190607
0.097682
1.86114
0.110586
0.102881
0.839129
0.715737
0.336917
0.873984
1.64445
1.21924
0.0326255
2.11099
0.0510829
0.600066
0.120916
0.0644051
0.0963376
0.466873
0.615505
1.27783
0.0702728
0.0324286
1.93673
0.0896266
0.0318588
0.0329361
1.02058
0.0934609
0.0344876
1.31193
1.06665
1.139
2.39089
0.387012
0.363292
0.947208
0.030198
2.28104
0.0969028
1.3254
1.01578
0.19818
0.0456118
0.0688622
0.126325
0.134249
0.0303577
1.17701
0.0301548
0.162538
0.615337
0.0738745
0.0531666
0.0323698
0.997296
1.63339
0.0558185
0.135146
2.26115
0.0393799
0.505982
0.0645773
0.0317609
0.218577
1.48596
0.428974
1.72962
1.49052
0.357914
0.0301828
1.01632
1.20356
0.03196
1.37083
0.528239
1.83953
1.43838
0.0320555
0.259914
1.5214
1.86487
0.0602053
0.82198
1.31219
1.62682
1.82815
2.23639
0.848473
0.220016
0.111986
0.457885
1.98892
1.2065
0.456064
0.0509776
0.0933441
1.07178
0.761655
0.0984476
1.03454
0.0321136
0.0636189
0.0716132
0.244691
1.03992
0.236026
1.38742
1.39161
1.2688
0.438281
1.33986
2.50692
1.72964
0.928709
1.5162
1.26177
0.149988
1.78541
0.404865
0.0485645
0.0611598
0.0371644
1.43271
1.0285
1.69557
1.75804
1.73444
1.31356
0.909309
0.203287
0.217897
1.62727
1.2324
0.116235
0.297107
0.349044
0.170574
0.172808
0.113061
0.350668
0.11948
0.0953363
2.32657
1.34597
0.0301095
1.08404
0.0377241
0.183422
0.078411
1.69857
0.784523
0.0762303
0.483047
0.0909919
0.0367392
0.0365968
1.12372
0.0616381
0.0341702
0.0332969
0.0331285
1.35039
1.17218
0.0383241
0.0974391
1.48229
0.151105
1.02078
0.254457
1.38113
1.00549
0.0332945
1.48874
0.0572932
0.862495
0.793438
0.88463
0.107312
1.1196
0.0529743
0.473009
1.72746
0.0329104
0.58592
1.69262
0.130564
0.655786
0.994157
0.0305478
1.28673
0.299021
1.38713
1.40261
1.26226
0.176651
0.244608
0.0303598
0.265582
0.0302927
0.0665578
0.754078
0.988799
1.77653
0.0424602
0.0329773
0.0531813
0.164487
0.570583
0.407469
0.880615
1.19026
1.38773
1.09384
0.0916445
0.515571
0.0323158
0.236953
1.36845
0.241858
0.0340759
0.107804
0.203723
0.769723
0.972205
0.0559207
1.05955
0.123691
1.78893
1.85507
1.02618
0.0326347
0.245891
1.40016
1.26129
1.24708
0.0474106
0.0332039
1.51946
1.19728
1.18916
0.0300856
1.68051
1.42484
1.72194
0.19488
1.20378
0.853619
0.0301223
0.0300957
0.03057
0.0304984
1.10579
0.192949
0.0337096
2.15335
1.70763
0.377249
0.0422963
0.400419
2.12937
0.0357309
0.235047
0.140929
0.0343491
1.11576
1.84178
0.0696693
1.1243
0.993556
1.65682
0.165486
0.0319897
1.2072
0.0337504
0.223023
1.80555
0.145562
1.16747
1.03433
0.0824038
1.30062
0.360866
1.62111
0.0378642
1.07348
0.0329093
1.66519
0.0381766
1.35371
0.0345219
0.226806
0.0391509
1.53665
1.30723
0.614599
0.713679
0.0353101
0.615093
0.718263
1.38113
0.0439781
0.054482
1.61315
0.0395675
0.204377
0.160003
1.21394
0.037509
0.0670977
0.434063
0.484264
0.030991
0.031956
0.0882593
0.654614
0.819738
0.100389
1.14451
0.841614
0.0512785
0.0308733
0.031939
1.14796
1.08657
1.98825
0.033108
0.0412968
0.0419853
1.36981
0.032384
0.0312185
0.327844
1.4752
1.76774
1.26732
0.0313274
0.12736
1.7236
0.786528
1.17036
0.0512875
1.24773
0.0324642
0.0345831
0.030283
0.0301064
0.0301054
0.0300854
0.0300858
0.358738
0.10524
1.65948
1.2315
1.49244
1.22222
0.172008
0.0998599
0.909116
0.659843
0.0310965
1.88084
1.13888
1.43282
1.22832
1.31925
0.0519571
0.23545
0.659633
1.38264
0.0712453
1.11381
0.839019
0.0419496
1.21715
1.12474
0.977757
0.227814
2.10745
0.167145
1.09802
0.103302
1.32343
0.923939
1.32392
1.85114
1.14784
0.041774
0.779079
1.11813
0.0558858
0.0323409
1.21523
1.16902
1.58656
0.035361
0.166154
0.0303598
1.38769
0.033971
1.49484
0.0331585
1.09562
1.37995
0.0627243
0.216125
0.129268
1.64267
0.515247
0.0493603
0.0346797
0.0345133
0.441818
0.0322793
0.395549
1.67123
0.119588
0.0875165
1.85088
1.76506
0.0302371
0.0334098
0.251968
0.290165
0.0310609
0.145989
0.709459
1.34916
0.122775
0.111986
1.26773
0.113155
0.248758
0.183289
0.0341892
0.0301929
0.879454
0.0881795
1.45182
0.0307292
1.21294
0.0367876
0.0350389
0.425447
1.47041
1.28379
1.23068
0.366431
1.7661
1.91894
1.44814
0.359965
0.196576
1.39621
0.496932
0.746753
1.47063
0.176153
1.3302
0.285229
1.75704
1.16481
1.74562
0.23028
0.266294
1.26542
1.2146
0.0345141
0.132758
0.0954093
1.24795
0.746753
1.33214
0.104857
2.41626
0.152446
1.96514
0.530772
1.32158
0.250851
1.33564
0.185286
1.41364
1.53623
1.11424
0.406746
0.481417
0.235789
0.0300967
0.0837343
0.143814
1.219
1.21314
0.613247
0.492063
0.768952
1.17628
0.0881603
1.35779
0.700598
0.0300881
0.0334029
0.0317455
0.0773106
1.18493
0.210126
1.92927
1.05542
1.40956
1.20624
0.704374
0.567383
0.181202
0.65221
0.138135
0.170281
0.641785
1.46326
0.125109
0.0734144
0.0301811
0.112493
0.0985182
0.326552
0.162916
0.197836
1.77479
1.75612
0.111059
0.0302508
1.22258
0.13013
1.45291
0.2497
0.238801
1.15966
0.73631
0.0832333
1.21787
0.301004
1.12508
1.34879
1.34147
0.297924
1.11966
0.0707023
0.246199
0.0707641
0.0380723
0.0645783
1.32308
0.288643
1.74596
1.03185
1.77614
1.65198
2.03907
0.20758
1.36855
2.45298
0.417905
0.0636161
0.0531414
1.19772
0.10169
0.0302287
0.0327252
0.467384
0.344559
1.81058
0.616959
1.94721
2.05052
0.214913
0.0300945
2.17274
1.25924
0.0490637
0.0302345
0.112515
1.19629
0.0325124
1.33646
1.68368
1.30221
0.095946
1.00944
1.32491
0.0399223
1.08058
1.69522
1.37782
0.304327
1.33547
1.8003
0.196917
0.25481
0.032194
0.0320751
0.195702
0.73938
0.0301096
0.0371647
1.10597
1.59622
0.0330094
0.862606
0.0301389
0.0300893
0.0300877
0.0301568
0.0304452
0.0324651
0.0320151
0.0305159
0.743891
1.6765
1.36967
0.0301253
0.580119
0.0528184
0.286105
1.69762
1.53018
1.21825
0.454389
0.0373028
0.0381724
0.276908
0.0316867
1.51809
0.0614375
0.0750327
2.02711
1.28868
0.159336
1.39899
0.0362114
1.5205
1.80991
0.0302458
1.76275
1.53555
0.130185
0.157725
0.344906
0.162319
0.831312
0.118657
0.0302203
0.158596
0.442052
0.0301039
0.0809435
0.0389147
0.100439
1.59281
1.17861
0.0344595
1.6558
0.25952
0.0385534
1.27833
2.18313
1.91163
0.0305389
1.11053
0.0403551
0.108297
0.464611
0.0900679
1.37622
0.767154
1.27364
0.0317302
0.556765
0.0920933
1.95345
0.241143
0.894065
0.583397
0.0680237
0.529662
0.314931
1.83904
0.0319412
0.177496
1.49534
1.01101
0.0309757
1.04203
1.55157
0.696685
0.339036
0.0363659
1.85314
0.505099
1.15437
0.484703
0.262801
1.58219
1.43874
1.53381
0.261334
0.0966761
0.734856
0.0957583
0.042848
0.0331297
0.0334236
1.54474
0.16699
0.454948
0.0436752
0.0325301
0.0319456
0.0304256
0.0302166
0.0327968
1.43543
1.78348
1.28318
0.160808
0.110047
0.0359486
0.0305508
1.61911
0.0889932
0.556234
0.256975
0.509816
2.10447
0.0593259
1.56496
1.53835
0.153703
1.62355
0.809832
1.24207
1.56394
0.0892432
0.606676
1.2639
0.033027
0.235155
1.38036
0.0933489
0.132678
0.115202
0.70862
0.885069
0.56574
0.0360954
0.146107
0.0956503
0.0303936
0.106994
0.0396346
0.145964
0.119095
0.155726
1.63589
1.96381
0.099457
0.0844009
0.685925
1.40198
0.64965
2.17753
0.05934
0.90079
1.13163
0.0829855
0.0946562
1.11106
0.080274
0.873971
0.0642573
1.23729
1.42767
0.176122
0.085336
0.109497
2.12091
0.104554
1.54376
1.27439
0.0333175
0.0499617
0.425487
0.0659529
1.65092
1.53368
2.00281
1.05446
1.75263
1.42705
1.18186
0.0316651
0.927234
0.0403636
2.10843
0.0345104
1.14001
0.0754693
1.42881
1.63548
0.0459378
1.12345
1.17189
1.75713
1.93039
0.185328
0.0635364
0.719737
0.0306506
0.222121
0.0445842
1.80367
0.0306279
0.195611
0.0302627
1.33551
1.08761
0.513969
0.0350068
0.113117
0.0313572
0.0593518
1.45601
1.63489
0.102166
0.457516
0.290272
1.54584
0.118814
0.0452441
0.913371
1.15257
1.60135
0.749103
0.0458591
0.840052
0.444746
0.740063
0.126005
0.287296
0.0625561
1.18589
0.369999
0.866457
0.0680204
1.16486
1.4004
2.21963
1.55092
0.11443
0.037604
0.241313
0.298518
2.24044
0.363611
1.78782
0.375173
0.864297
1.12284
0.347685
0.0944026
2.31879
0.0385004
0.0320951
2.36089
0.0370995
0.955798
0.45928
0.558143
0.183068
0.145775
0.14281
1.46699
0.0308978
1.91807
1.19546
0.311259
0.945217
0.0727479
0.754105
1.17126
0.0311704
0.965132
1.84825
0.0358855
1.39612
1.10338
0.112476
0.444589
1.82371
0.640014
0.539358
0.0349125
1.08551
1.45636
0.126138
0.0373796
1.26704
0.703177
1.07607
1.23567
0.640985
0.898657
0.221916
0.496149
0.287728
0.159454
1.51308
1.32833
0.184131
0.203498
0.222803
0.257372
0.0385959
1.64564
1.0577
1.57174
1.81603
1.7723
0.769535
0.766024
0.942585
0.0719361
1.88072
0.354087
1.82534
0.0459918
0.0337517
0.037234
1.11292
1.80288
0.795964
0.123548
1.06821
0.581613
0.714364
1.12392
0.448586
0.396767
0.403397
0.2877
2.23351
1.44207
0.0824488
0.103744
1.08232
1.37839
2.03407
0.0305216
0.0307845
0.0354487
0.0306391
0.0312433
0.0368822
0.0453794
0.0610822
0.0766459
0.0311983
0.252902
1.22933
1.43152
0.79491
1.73387
0.114643
0.146875
0.0337209
0.0503807
0.0320599
1.7817
1.28983
0.104433
1.3125
0.393617
0.336833
0.48938
0.0752066
0.0389069
1.64344
1.79733
0.291087
0.804419
0.235606
0.183492
0.380778
0.469025
0.134762
1.12706
0.305746
0.0550448
1.32354
1.17903
0.0826586
1.81
1.58111
0.491548
0.0367185
0.763899
1.43554
0.0492671
0.222286
1.40811
0.07528
2.13192
1.1197
1.36179
0.0366441
0.555621
0.0344599
0.507517
0.170156
0.0479776
0.153388
0.0425311
2.32385
0.710132
1.58262
0.104863
0.0315222
0.651986
0.0837564
1.19155
1.77957
0.941152
0.122895
1.22661
1.77318
1.52264
1.67443
0.168254
0.101165
0.68065
1.58055
0.380257
1.63598
1.20242
1.17458
1.33987
0.0871124
0.681197
0.335096
0.165325
0.510528
0.315641
1.48778
0.0654627
0.0446631
0.063072
0.362686
0.0551192
0.207721
0.0402462
0.135445
0.176755
1.57798
0.81275
0.0302066
0.0770361
1.00965
1.91157
0.128146
1.62843
1.53767
0.0305328
0.0315415
0.0301761
0.247809
1.1725
1.52469
0.160239
0.409012
0.722903
0.0383551
0.324136
2.14369
1.34181
0.345537
1.6492
0.0301988
0.581779
1.81296
0.030118
0.0300917
0.730135
1.58581
1.99048
1.60854
0.732297
0.0310694
1.55801
0.0527702
1.04435
0.0301062
0.0956029
1.81748
0.175816
0.659052
0.815374
0.11851
0.0648725
1.65143
0.25404
0.0375296
0.198388
1.54407
0.10141
1.77557
0.318983
1.82051
1.5869
1.15928
0.0808046
0.482338
1.24186
0.0363648
1.31542
1.72711
0.338601
0.0404108
1.09182
0.405389
0.819478
0.110903
0.335335
0.534688
0.248468
0.101812
0.119805
1.60214
0.631288
0.041653
0.721114
0.646904
0.189889
0.856427
0.0376619
0.0690811
0.121741
0.300109
0.273961
0.345148
0.200671
0.0865788
0.782192
0.976781
0.0373435
1.71038
1.75088
0.083763
0.106674
0.219098
0.479235
0.669559
0.116803
1.66831
0.057173
0.368684
1.52726
0.813191
0.831371
0.0870599
0.212965
1.42273
0.18907
0.205236
1.54717
0.509208
0.0308859
1.50682
0.0391468
2.01794
0.55015
0.692692
1.83104
1.21461
0.0302866
0.758944
0.162356
0.0622801
0.73329
0.764683
0.703211
0.819213
0.955885
1.865
0.038888
0.899925
0.0974034
0.0646992
0.703977
0.199981
0.0393698
1.71701
1.64053
1.47373
0.0342051
0.0650519
0.304814
1.72604
2.00921
0.177449
0.0327965
0.304935
0.0394943
0.0300905
0.188517
1.298
0.471249
0.385113
1.47755
0.37117
1.78733
0.499358
0.0355425
0.0301849
0.112806
0.0390467
0.306498
0.551029
0.0886421
0.315592
1.57664
0.687926
1.02881
0.602228
1.50105
0.530198
0.0392986
2.09646
0.116414
1.1179
0.7146
0.913967
0.223563
0.323622
0.257388
0.289066
0.152996
0.0722673
0.484589
0.292796
0.113737
1.56194
0.040049
1.91452
0.0488783
1.67652
0.0360893
0.953229
0.597166
1.62777
0.0600221
1.76444
1.67235
0.0543669
0.264533
0.361588
1.79684
0.259686
0.630552
0.528032
0.0315636
1.50213
0.324878
1.51749
0.155943
1.08913
1.74485
2.51298
0.178404
1.90431
1.43736
1.31528
0.0835353
1.40184
1.30776
0.031056
0.15924
1.46179
0.0435921
0.0377981
1.56506
1.60356
0.0301724
0.271186
1.32559
0.880228
0.127034
2.52673
0.125056
0.138547
0.138455
0.0331582
1.86725
0.461213
1.5729
1.89679
0.0302864
0.19426
0.516378
0.427698
0.0574765
1.63017
1.49715
0.0956556
0.42502
0.0801918
0.0303656
0.0947567
0.0304365
0.146408
0.170798
0.133679
0.1051
0.0406266
0.146979
0.805184
1.00101
0.0448614
0.119823
1.18902
0.564063
1.28391
0.453014
0.461086
0.125994
1.2524
0.981327
0.233474
0.0640788
0.547338
0.331399
1.56714
1.71828
1.37018
1.27114
0.97035
0.362824
1.77289
0.273357
1.50876
1.63931
0.0596625
1.40925
2.33732
0.182173
0.041021
1.08153
0.294997
1.82356
0.233721
0.7923
1.00187
0.113504
0.730425
0.571976
0.674829
0.121923
0.0308724
0.031143
0.0994406
0.126476
1.71237
1.29769
0.137838
0.181764
0.295959
1.44417
0.440911
0.0304191
0.415316
1.10058
0.605472
0.535494
1.26489
0.223507
0.175171
0.195753
0.488641
0.69326
0.0443104
0.493043
0.0321401
1.96034
0.491634
0.229844
0.0937143
0.0302275
1.48326
0.413995
0.258321
1.09786
1.32488
0.22932
1.41579
0.735589
0.182546
1.56505
0.0749869
0.0362473
0.924079
0.0312267
0.557023
1.35245
0.177136
1.12438
1.603
0.649845
0.808665
0.104053
0.0331376
2.1601
0.441184
0.274545
0.188974
0.0309503
0.192053
0.925615
0.0497289
1.57427
0.109763
2.56158
1.81897
0.345837
0.0846309
0.601961
0.732531
0.0302554
0.112274
0.0820174
0.143059
0.030326
0.0925508
1.02016
0.273899
0.107112
1.78979
0.0302515
0.042282
0.0393299
1.34656
0.071911
0.212039
1.48521
0.0301142
1.56867
0.168323
1.51087
0.266288
0.125841
0.188161
0.985432
0.274489
0.273275
0.345276
0.284422
0.045554
0.167029
2.27339
0.100283
0.319441
0.0894112
0.194561
1.67579
0.0898899
1.47698
0.482979
0.832466
1.02613
0.030682
0.094999
0.0421092
0.0806946
0.917906
0.0963665
1.93108
0.259726
0.0726586
0.0358326
0.0531419
1.839
0.0388508
0.0921485
0.0403541
0.244129
1.5137
1.46598
0.0304102
0.0304534
0.0301137
0.0300958
0.0300994
0.0301038
0.0300852
0.0300856
1.24697
1.55228
0.968801
1.90435
0.0815343
0.192899
0.615124
0.280513
1.49444
0.0455587
0.110049
0.979486
0.181983
0.0308229
1.46481
0.0861758
0.0514795
0.125336
0.230012
1.12222
0.078121
1.48942
0.239428
0.102776
1.06809
0.0469085
1.48823
1.79111
0.155871
1.43774
0.0316509
0.0533435
1.62232
0.188515
0.131204
1.90507
1.3232
0.147248
0.0386265
1.57113
1.30586
2.02192
0.319757
0.0339178
0.111008
0.127733
0.121542
0.0730294
0.110926
0.0301794
0.377981
0.0323233
1.6907
1.48562
0.783634
0.382839
0.036003
0.0865943
0.0710177
1.57432
0.0331055
0.614619
0.995038
0.106726
0.0451352
0.183612
0.381331
0.0307812
0.199554
1.4412
0.038837
0.279249
0.0324533
0.0305498
0.0318714
0.0330504
0.0308978
0.101317
0.489316
1.41688
0.125213
1.25594
0.030768
0.0389742
0.032637
0.0536174
0.183127
1.78584
0.140959
0.153847
0.156441
0.216623
1.35454
0.048812
1.66565
0.462737
0.284137
1.84942
0.804639
1.01066
0.0319543
0.045745
0.0318683
0.0301412
0.0302727
0.0332287
0.0334168
0.0461748
0.567678
1.23538
0.0867686
0.659954
0.828529
0.238243
2.23337
0.146893
0.605148
1.14059
0.0455657
1.61641
1.69582
0.389519
0.0876768
0.183057
0.2627
1.28691
1.51226
0.18998
1.13616
1.37285
1.39561
1.33022
0.0301108
0.469458
0.0307755
0.0919377
1.38269
0.0301503
1.17994
0.169016
1.63136
0.245975
1.7633
0.509409
0.14528
1.1745
1.26283
1.63912
0.129805
0.0973579
0.0465086
0.264657
0.0694803
0.055827
1.79766
0.0916844
0.117261
1.72865
0.347315
0.679269
0.0795129
1.53937
1.24732
1.57482
1.67441
0.0301137
0.237604
0.111658
0.0310342
0.030085
0.565602
1.18732
0.0799984
0.545109
1.289
0.0304041
1.50916
0.0988985
1.91102
0.460414
0.356014
0.962592
0.162492
0.0350967
1.55297
1.67663
0.0506069
0.437157
0.210315
0.250108
1.47777
0.0774303
0.0306906
1.7106
1.52669
1.11623
1.88641
0.708283
0.119177
0.0940117
0.186405
0.335946
2.13675
0.0379814
0.10407
0.941194
0.977938
0.766051
0.129358
0.320511
0.0939319
0.38586
0.0347033
0.0329831
0.491532
1.53474
0.282134
1.22809
1.17582
0.0893423
0.431606
1.5897
0.0336854
0.319484
0.44928
0.35853
0.322764
1.56471
1.28351
0.0741796
1.80287
0.380905
0.520838
1.50111
0.763523
0.950356
0.115264
0.0515032
1.39753
1.20782
0.0581254
0.0355932
0.160252
0.141406
2.36135
0.0917074
0.118766
0.333571
0.0762862
1.77369
1.44229
0.698915
1.63931
0.0356523
0.0869161
0.0842746
1.45735
0.0323681
0.349296
0.444465
1.03643
0.142405
0.179325
1.33716
1.69653
0.147069
1.28471
0.0718065
0.346627
1.4713
0.10292
0.147613
1.26183
0.0608818
0.0494413
1.52213
0.0306005
1.37934
1.868
0.171407
2.00152
0.270278
1.3753
0.972551
2.39654
0.0682563
0.761045
0.417259
0.102713
1.33867
0.188262
0.774887
0.179844
0.0321229
1.34198
1.88527
0.0741811
1.23812
0.494586
0.461719
0.286513
0.755605
0.736744
0.0301507
1.42692
0.91851
1.89324
0.0859758
0.41584
2.10941
1.44406
1.50941
1.19654
1.41256
1.34359
1.11476
0.0307508
0.0306653
1.68485
0.0301319
0.0302041
1.03925
0.0569945
0.224926
0.380893
0.0693252
0.0995258
0.259458
0.866753
0.1587
0.124542
0.0854179
0.890909
0.320097
0.0857754
0.107302
1.01564
0.102434
0.178913
1.73456
0.102132
0.42982
0.192438
0.0788395
0.0301803
0.20101
0.0564643
1.22932
0.217056
0.0999974
1.31944
1.52163
0.670613
0.061974
0.0899881
0.0475893
1.44311
0.14446
0.0613519
0.0480518
0.0341131
0.0349337
0.0315732
2.53412
0.13241
2.38149
0.0950735
0.206252
0.573508
1.64596
0.145213
1.42091
1.60503
0.650741
0.815333
0.772438
1.47269
0.112069
0.12221
0.636052
0.892457
0.718435
0.554066
0.223269
0.420089
0.0300863
1.60345
0.856938
0.150023
0.0306802
1.10585
2.57352
1.52728
0.0336337
1.53654
0.435533
1.13369
0.031498
0.0400548
0.104745
0.126262
0.716823
0.237353
0.04882
0.049372
1.95176
0.030087
1.6057
0.0304093
1.54947
0.29313
0.990127
1.54168
0.068513
0.311263
0.540598
0.0302724
0.0832678
0.0754352
0.041107
0.0355634
0.0400009
0.125386
1.38321
0.0996313
0.121446
0.0941561
0.0468939
1.68874
0.651968
1.50784
0.250282
0.888023
0.0301474
1.4698
1.40253
1.16394
0.363465
1.45828
0.492111
1.58704
0.753221
0.0376265
0.0405342
1.44765
0.364973
1.40726
1.89601
0.140998
0.0481207
0.202654
0.502141
1.82279
0.617406
0.198707
0.11716
0.0505293
0.188215
0.171178
0.0317766
1.58026
0.239119
1.27159
0.19997
0.111865
1.43244
1.20446
0.454738
0.100198
0.0473408
0.353389
0.149495
1.63526
0.827575
0.0330364
1.72153
1.35559
0.140751
0.0326892
0.0301363
1.66604
1.43959
0.948997
0.0776336
1.84883
1.81498
0.104069
0.133397
0.33737
1.53862
0.312026
0.0302466
1.51914
2.08136
0.0731807
0.117627
0.239605
1.19134
1.2128
1.05816
0.164598
0.101614
1.06426
0.062069
0.0345522
2.03512
0.802413
0.0333047
0.0302669
0.030255
0.0301028
0.0587218
0.0367262
0.216952
0.38036
1.54932
0.0881931
1.62696
0.109086
1.19898
0.0307479
0.0377378
0.0308674
1.75217
1.16108
1.31743
1.53584
0.16792
1.34433
0.034854
0.32404
2.18937
0.94079
0.0347016
0.104203
0.0336401
0.579047
0.822642
1.36569
0.764225
1.46293
0.0312032
0.340103
1.27528
1.65036
0.741674
1.95056
0.0928106
0.139517
1.76992
0.0336532
1.2499
0.185382
0.0338043
0.0358024
0.0310293
0.0312895
0.0573169
0.80048
1.50649
0.0301329
0.0301417
0.0300884
0.0300866
0.655185
0.629576
0.0620249
1.6114
1.19046
0.690211
0.0957872
0.160892
0.258262
1.56557
1.48382
1.33686
0.21438
1.2471
0.0465369
0.034763
1.22394
1.1533
0.0727417
1.55126
1.04163
0.0313199
1.84157
1.6816
1.75289
0.188999
0.568997
1.5984
1.74408
0.755223
1.11901
0.760933
0.378154
0.677033
0.831279
0.0611741
1.31478
0.236056
0.173661
1.35714
0.0864805
1.21769
0.13944
0.117808
0.127664
1.5583
1.40095
1.55686
0.165051
0.649643
2.17849
1.2021
1.57833
1.89181
1.92652
0.102564
1.91052
1.13572
0.04562
0.108498
0.150202
1.68545
1.44903
1.68267
0.148864
0.0305571
1.41209
0.0328166
1.25788
0.0413241
1.11362
0.631902
1.02288
1.24979
1.64681
1.23318
0.468993
0.294123
0.477792
0.193798
0.0839306
0.0305956
0.040002
0.0434634
0.421217
1.46271
1.78659
1.5125
0.0796144
0.0358108
0.0766685
1.51223
0.380016
0.129764
0.141307
0.0303336
0.0307126
2.45915
2.50998
0.690532
0.416049
1.34345
0.103079
1.34859
0.892095
1.07167
0.710324
0.519451
0.366593
0.189055
0.728152
0.0845531
1.2945
0.108712
0.647413
0.0317838
0.0317459
0.0301331
0.0302503
0.073498
0.215172
1.70094
0.0445632
0.286693
1.2723
0.0690864
1.14574
0.0776547
0.0357957
0.383908
0.0338121
1.26534
0.124721
1.51454
1.18062
1.81949
0.0684483
1.37576
1.57324
0.277827
0.112886
0.18388
0.370425
1.30621
0.0364204
0.0362663
0.055854
0.0564908
0.0429719
1.59444
0.0413597
1.31335
1.20806
0.0365415
0.23872
0.182495
1.90449
0.0305097
1.40155
0.191705
0.0935009
1.27485
0.0780554
1.65001
0.247584
1.30592
0.517162
1.41365
0.0306717
0.0307635
0.0301095
0.0301455
0.0325411
0.0355656
0.0548138
0.057646
1.2736
0.0540495
0.742024
1.21081
0.058967
1.68309
0.549552
0.148219
0.0301245
0.914078
1.6959
1.49742
0.0882194
0.0383865
1.32652
0.0352784
0.125167
0.359762
1.42969
0.0524402
0.0367884
1.90299
0.175757
0.186323
1.84748
0.432628
0.0304762
0.172612
0.0442808
0.179395
0.23029
1.65135
1.1772
0.0840436
0.0310567
0.338367
0.0320652
0.0301247
0.0300952
0.030654
0.0301518
0.030567
0.0405169
0.199152
1.31159
1.43683
1.43398
1.42595
1.51862
1.78292
0.52645
1.59545
0.20229
0.132448
1.58324
1.17856
0.25275
1.82952
0.0334011
0.0306252
0.0303
0.0304416
0.0327272
0.0303791
0.176757
1.06391
0.425818
1.55779
0.0387875
2.0674
0.639904
0.247723
2.07562
0.047878
0.865121
0.527281
0.0329465
0.0304194
0.0302227
0.0328691
0.0337776
0.0488391
1.53812
1.16827
0.176443
0.0484004
0.0333554
0.237587
1.23909
1.45558
1.61547
0.515582
0.16872
0.559325
0.0342708
1.08884
1.07784
0.312424
0.0855575
1.32639
0.167003
1.37689
1.47317
1.12907
1.23734
1.02038
2.47398
2.54591
1.20801
0.0304165
0.432876
0.0302688
0.0304824
0.030479
0.748842
2.13649
0.281773
1.19025
1.51485
1.24032
1.35796
0.0306731
1.06983
0.524716
0.265618
0.176149
1.45403
0.399923
1.59578
1.0924
1.26592
0.40862
1.06215
1.30905
0.194081
0.0373698
0.0373606
1.13154
1.64804
1.23345
0.0306425
0.82822
1.56292
0.0756229
0.0472278
0.0431702
0.0367322
0.0757399
0.0429067
0.0835861
0.731735
0.630759
1.0067
0.0915408
0.0586253
0.318822
0.23958
1.46794
0.262984
0.0556695
0.975787
0.639453
0.0314021
0.538303
1.17384
0.0440562
0.147666
0.0301991
0.192861
0.114254
1.19831
1.28591
0.0593445
1.54754
2.10752
0.0312838
0.0311514
0.0301141
0.0301886
0.0324195
0.1332
0.070195
1.22154
0.0468753
0.0466271
1.90273
1.11478
0.0409523
0.63308
1.27096
1.61492
1.37458
0.249951
1.36321
0.413642
1.5842
0.0335908
1.33567
0.0311891
0.41496
0.0302773
1.23647
0.121193
1.16515
0.0346255
1.02941
1.21047
0.0313045
0.0301432
0.045485
2.03478
0.034124
0.225234
0.0547933
2.19906
2.00467
0.882732
1.29156
0.351793
0.798808
0.68888
0.710377
0.880206
1.55385
2.06354
0.108687
1.83036
0.0322069
1.54827
1.62478
1.46901
0.0324836
1.02859
0.152819
1.21733
0.0344106
0.478436
0.575555
0.0592684
0.05001
1.38014
1.08976
1.76326
1.12102
0.0441852
0.305586
0.0388948
0.0359793
1.1279
1.98277
0.703117
0.0949709
1.18075
0.0330635
1.2124
0.0301924
2.10092
0.151052
0.445631
0.623115
0.0793773
0.0301412
0.0787062
1.14063
1.40337
0.0330625
0.0521944
1.63829
0.226994
0.0617247
0.03635
0.520032
1.15211
0.0371664
0.036869
0.159655
1.50899
0.030095
0.0300883
0.03019
0.0302018
0.345928
0.073544
0.030138
0.0965357
0.703307
0.359107
0.2637
1.21774
0.0454179
0.425032
0.375626
0.0304841
0.0308878
0.0356185
0.398373
1.41377
1.49925
0.685504
1.11376
1.16176
0.0949019
0.550854
0.0921303
1.04186
1.8559
1.25171
0.478973
1.85117
0.0620772
1.24669
0.110667
0.030563
0.0416362
0.349088
0.0399
0.0737384
0.0615791
0.743074
0.970243
1.21886
1.78879
2.06594
1.24882
1.00483
0.806434
0.136123
0.0726916
0.360006
0.233493
0.0324578
0.0436069
1.54443
0.0877189
0.0628701
0.03723
1.01261
0.160447
0.0565063
0.0355517
0.0304654
0.0308883
1.01508
1.21052
0.383524
1.74819
1.53647
0.0300902
1.13941
0.0466457
0.289505
0.194506
0.183703
0.0750541
0.0902425
1.0948
0.200273
0.934347
0.349994
0.0309077
0.849264
0.0390167
0.614856
0.131671
0.704042
0.193173
0.429089
2.26828
0.717663
1.50893
0.311723
1.27412
0.0303303
0.0314216
0.299088
1.55647
0.0724247
0.108204
0.431763
0.331997
0.119248
0.817129
1.03827
0.575403
0.686082
0.0425005
0.156762
1.67536
1.58612
0.638529
0.131789
2.27805
0.885274
0.0302417
0.0301317
0.0311045
0.0303413
0.0303855
0.0322212
1.08596
0.0378032
0.0530324
1.10277
0.0412622
0.0352629
0.274463
2.04884
0.347253
0.829963
1.78493
0.205389
0.14414
1.50022
0.409005
1.09826
0.193767
0.505326
0.0608943
0.112418
0.0810233
1.59415
1.33945
1.66267
1.82755
0.0511774
0.78023
0.991799
0.163915
1.47331
1.75903
1.37653
0.472056
0.646183
0.0318337
1.23455
0.765929
1.65761
0.652175
0.576229
0.0379632
1.36137
0.260741
1.85476
1.4854
0.117683
0.0995843
0.145489
0.0481531
0.124213
0.167021
1.36918
0.293385
0.34006
1.13952
0.657168
0.0876351
1.58501
0.1135
1.2524
1.15201
0.242379
0.056372
2.27624
1.97163
0.0321207
0.592466
0.0785457
1.57632
1.42251
0.058731
0.786521
0.796394
2.13748
0.289445
0.0710316
0.162208
0.116812
1.14192
1.65273
0.0637717
1.25878
0.105851
0.26489
0.693277
1.32649
0.250377
1.75103
0.545936
0.100635
0.147149
0.0700384
0.1253
0.54492
0.0956975
1.02331
0.0580529
0.393751
0.0311453
0.0371621
0.0307873
0.0366534
0.467318
0.820028
1.00309
0.535482
0.567054
1.15488
0.032085
0.608063
1.30327
1.14448
1.57577
1.3663
0.821175
1.65875
1.64128
1.69228
0.238452
0.0594158
1.12275
0.549158
0.144833
0.0701472
1.42798
1.63057
1.44986
1.60093
0.336764
1.62211
1.39828
0.778769
0.226515
0.261098
0.365502
0.120508
0.279025
0.0746938
0.0408087
0.0932369
0.0319852
0.533663
1.08731
0.115373
0.179547
0.0791732
0.545497
0.243845
0.124846
1.79719
1.52265
0.173801
0.0307876
0.0389781
0.183718
0.121639
0.355553
0.0300887
1.25681
0.0701924
2.53309
2.58924
0.203613
0.0347526
1.2317
1.81942
0.640482
0.810376
1.33902
0.369745
1.57302
0.232589
0.164665
1.70594
0.030091
0.155317
0.112021
0.0431648
0.549685
0.383519
0.0303493
0.0363344
0.0306794
0.0926029
0.905082
0.0379572
0.0340181
0.656048
0.945163
1.37801
0.0954762
0.768046
1.50573
1.57904
1.72394
1.55868
0.0306603
0.0580997
1.72172
0.0305234
0.221804
1.63677
0.27526
0.0479701
0.0483725
0.112226
1.65615
0.0497474
0.649041
0.691245
0.197243
0.735228
0.67066
0.79329
1.23707
1.60345
0.276503
0.427432
0.111897
1.42454
0.512559
0.0328049
0.0741833
0.1119
1.48989
0.432557
0.162717
0.812611
0.188796
1.68249
1.28516
0.179441
1.34424
0.85992
0.636544
0.0715407
0.0481931
0.0564232
1.57114
0.0308667
0.335003
1.31255
0.752127
0.040385
1.16073
0.310703
0.0972066
0.85173
1.13606
0.0972046
0.030406
0.142008
0.279576
0.0367146
0.0401313
0.199402
0.265897
0.383916
0.328667
0.0454788
1.44981
1.42939
1.07204
1.40166
0.694243
1.22392
0.300003
0.132232
0.0327776
0.116671
0.228366
1.62956
0.030395
1.15717
1.32705
0.0932282
0.0408907
0.30763
1.95267
0.0979343
0.0426086
0.547646
0.13704
0.565885
0.48605
1.7062
0.911313
1.75919
0.0438497
0.271987
0.277945
0.077824
0.124302
1.47341
0.36572
1.02945
1.12022
2.03359
1.29929
1.42376
0.136413
0.0555819
1.4742
0.064302
1.72591
1.28822
0.626244
0.851247
0.103607
2.02659
1.04395
0.0622159
0.162956
1.44954
0.735503
0.107103
0.878107
0.276903
0.285238
1.63703
1.44859
0.06473
0.134743
1.77209
0.560705
0.353713
0.0304231
0.343147
1.29203
1.52751
0.864709
1.39627
0.0335714
0.210095
0.0318745
0.0374633
1.42627
1.33679
0.0350993
0.0304145
1.10874
0.686779
1.26962
0.0302211
1.38132
1.51894
0.329916
0.567023
1.63072
0.242184
0.108942
1.04186
0.187064
1.22124
1.94711
0.201247
0.170905
0.0496332
1.63558
1.87035
0.349025
0.541419
0.0325446
0.094574
1.24283
0.123136
0.239518
1.58398
0.0729752
1.89475
0.0364299
0.105573
0.202602
0.0308707
0.139127
0.536437
1.12253
0.474571
0.109654
0.697419
1.677
0.142659
0.0441872
1.1802
0.0983255
0.626758
0.1392
0.965941
1.61262
0.526239
0.789556