/*--------------------------------*- C++ -*----------------------------------*\
| =========                 |                                                 |
| \\      /  F ield         | OpenFOAM Extend Project: Open source CFD        |
|  \\    /   O peration     | Version:  1.6-ext                               |
|   \\  /    A nd           | Web:      www.extend-project.de                 |
|    \\/     M anipulation  |                                                 |
\*---------------------------------------------------------------------------*/
FoamFile
{
    version     2.0;
    format      ascii;
    class       volScalarField;
    location    "2000";
    object      nut;
}
// * * * * * * * * * * * * * * * * * * * * * * * * * * * * * * * * * * * * * //

dimensions      [0 2 -1 0 0 0 0];

internalField   nonuniform List<scalar> 
26307
(
0.000861896
0.000151931
0.000150062
0.000114773
0.000161878
0.000378813
4.56532e-07
0.000957049
5.47659e-05
0.00144845
6.05101e-05
0.000103851
0.000160034
8.11246e-05
6.80691e-06
7.93803e-05
4.62434e-05
3.27505e-05
0.000160448
0.00101104
0.00183983
0.000291502
9.03581e-05
8.6885e-05
3.47778e-05
0.000885196
0.00120878
4.1392e-06
0.000331525
0.00184713
4.84172e-05
0.00122839
5.38472e-05
0.000405326
0.000495125
2.6381e-05
0.000921416
0.000214483
0.000219775
0.000958677
2.02055e-05
7.77597e-06
0.00154533
7.17398e-05
6.47481e-05
1.51117e-06
0.000355264
0.000896309
0.00131684
0.000113422
1.88523e-05
0.000154354
0.000756465
0.000268374
0.000201604
9.10306e-05
0.000123661
8.22558e-05
0.000624575
0.000215412
1.69609e-05
1.11124e-05
9.9218e-06
3.45593e-05
0.00101826
2.43093e-07
0.000213871
0.000101542
4.55839e-05
0.000613371
0.00114321
8.90304e-06
0.00112532
2.82473e-05
7.48787e-06
0.000753757
0.000156
5.47112e-05
0.00135284
0.000104132
6.65738e-06
0.000887923
5.04553e-07
0.00104443
0.000549176
0.000758015
0.000154287
9.5129e-05
0.000834219
3.23227e-05
0.00114192
7.94665e-05
7.68849e-05
8.00729e-05
6.19534e-05
0.00118141
3.26273e-06
3.86897e-06
0.00125102
0.000376954
1.18917e-06
6.08585e-05
0.00083325
0.000849071
3.95369e-05
1.98156e-06
3.85368e-06
0.000451066
0.000837379
0.000101673
0.00124599
6.66674e-06
0.000184834
0.00135023
6.63748e-05
1.00597e-06
3.76097e-06
5.09622e-05
0.00110158
0.000831444
0.000996851
0.000140787
2.94646e-06
2.89673e-06
1.59743e-05
9.78927e-06
0.00120283
1.15098e-05
1.76416e-06
4.97161e-07
5.31577e-07
4.32731e-08
0.00100386
2.93282e-05
0.000236385
0.000970678
0.000658723
0.000973401
0.00109427
0.000218966
0.00095784
0.000212444
4.29232e-05
3.82852e-06
0.000437625
0.00120598
0.00066898
0.00022045
4.67449e-05
0.000197455
0.00126647
1.72035e-05
0.000294511
0.00091629
0.00106236
0.00122495
0.000119964
5.09068e-06
8.77419e-05
0.000237315
4.62845e-05
0.00120585
4.44239e-05
0.00102012
0.00111351
0.000898584
0.00064457
0.000948629
2.19279e-05
0.0010185
0.00150216
0.00126995
0.000348119
0.000831914
6.83431e-07
0.000135216
4.54729e-07
0.00110298
0.00144039
0.00129335
3.13447e-05
1.78288e-05
0.00137761
9.34168e-06
0.000370556
9.97155e-05
7.54231e-05
0.000221385
7.16007e-06
0.000255545
0.00022941
1.35243e-06
6.13113e-05
0.00119589
0.000242497
8.63699e-05
1.44319e-07
0.0010861
2.63094e-05
0.000828927
3.56105e-07
0.00107488
1.15052e-05
5.96733e-06
0.00012995
2.26542e-05
0.000156045
3.85301e-07
0.00152067
0.000102635
0.000100367
0.00111318
5.76941e-05
2.31579e-06
0.000254659
0.00113732
0.000168579
0.00162286
0.00107529
4.45899e-05
0.00120056
0.000116393
4.89976e-06
0.00155455
0.000259316
0.000904349
4.31252e-05
0.00164892
0.00127287
0.000133197
0.00183924
9.52025e-05
2.25595e-05
8.13557e-05
0.000497537
0.000313399
0.000680684
0.000144082
9.33132e-05
9.27937e-05
8.20174e-07
1.87925e-05
0.000247879
0.00184563
0.0011373
6.66256e-05
0.00079099
0.000670725
0.00115855
0.0014362
0.00016937
0.00119565
8.45412e-08
2.23718e-07
1.65139e-06
8.82637e-07
1.11125e-06
6.73054e-06
5.95536e-07
0.00166356
0.000683445
1.93543e-06
0.000113704
4.78816e-05
0.001297
5.7022e-05
5.15644e-05
0.000573073
0.000485671
0.000217339
0.000597762
0.00114351
0.000842322
1.7999e-06
0.00147398
1.48739e-05
0.000403737
6.43389e-05
2.43104e-05
4.69292e-05
0.000309392
0.000414673
0.000883818
2.84667e-05
1.66042e-06
0.00135054
4.21756e-05
1.2568e-06
2.0199e-06
0.000701599
4.48916e-05
3.11888e-06
0.000907977
0.000734232
0.000785483
0.00167224
0.000252824
0.000236022
0.000649629
8.04114e-08
0.00159442
4.73296e-05
0.000917513
0.000698201
0.000119067
1.09985e-05
2.74675e-05
6.81705e-05
7.37829e-05
1.93532e-07
0.000812406
4.98116e-08
9.38214e-05
0.000414554
3.10179e-05
1.63498e-05
1.61872e-06
0.000685108
0.00113567
1.82283e-05
7.44184e-05
0.00158034
6.58424e-06
0.000337094
2.44324e-05
1.18742e-06
0.000133516
0.00103125
0.000282547
0.00120384
0.00103447
0.000232213
6.96258e-08
0.00069858
0.000831213
1.32844e-06
0.000949696
0.00035286
0.00128169
0.000997546
1.39609e-06
0.000162796
0.00105635
0.00129964
2.13356e-05
0.000560926
0.000908156
0.00113102
0.00127363
0.0015628
0.000579692
0.000134535
5.80136e-05
0.000303025
0.00138751
0.000833297
0.000301735
1.47993e-05
4.48089e-05
0.000737868
0.000518196
4.84239e-05
0.000711491
1.43727e-06
2.37535e-05
2.94161e-05
0.000152013
0.000715304
0.000145875
0.000961443
0.000964411
0.000877427
0.000289139
0.000927757
0.00175442
0.00120385
0.000636526
0.00105266
0.000872443
8.49315e-05
0.00124336
0.00026547
1.309e-05
2.20117e-05
5.0149e-06
0.00099353
0.000707209
0.00117972
0.00122397
0.00120725
0.000909126
0.000622784
0.000122685
0.000133034
0.00113134
0.00085164
6.10233e-05
0.000189141
0.00022593
9.95135e-05
0.000101096
5.87749e-05
0.00022708
6.33217e-05
4.622e-05
0.00162668
0.000932083
1.77201e-08
0.000746554
5.41138e-06
0.000108614
3.42313e-05
0.00118185
0.000534394
3.26866e-05
0.000320848
4.31427e-05
4.71377e-06
4.61285e-06
0.000774661
2.23504e-05
2.89404e-06
2.27544e-06
2.15613e-06
0.000935217
0.000808986
5.83639e-06
4.77095e-05
0.00102864
8.57232e-05
0.000701743
0.000158931
0.00095699
0.000690915
2.27377e-06
0.00103322
1.92728e-05
0.000589624
0.000540709
0.000605303
5.4703e-05
0.00077174
1.62136e-05
0.000313738
0.00120231
2.00171e-06
0.000393717
0.00117763
7.11731e-05
0.000443205
0.000682885
3.28156e-07
0.000890121
0.000190497
0.000961239
0.000972204
0.000872793
0.000103818
0.000151954
1.94968e-07
0.000166811
1.475e-07
2.58352e-05
0.000512829
0.000679089
0.00123707
8.76609e-06
2.04908e-06
1.63603e-05
9.52018e-05
0.000382853
0.000267314
0.000602459
0.000821792
0.000961663
0.000753496
4.3605e-05
0.000343886
1.58049e-06
0.000146532
0.000948011
0.000150006
2.82725e-06
5.50512e-05
0.000122994
0.000523911
0.000667335
1.83006e-05
0.000729206
6.63047e-05
0.00124585
0.0012927
0.00070557
1.80642e-06
0.000152863
0.000970473
0.000872107
0.000862041
1.22727e-05
2.20959e-06
0.00105498
0.000826762
0.000821009
7.57915e-10
0.00116905
0.000987949
0.0011984
0.00011673
0.000831367
0.000583337
2.67432e-08
7.93512e-09
3.43858e-07
2.93184e-07
0.000761957
0.000115362
2.56777e-06
0.00150398
0.00118826
0.000245908
8.65005e-06
0.000262321
0.00148699
3.99954e-06
0.000145182
7.8515e-05
3.02077e-06
0.00076902
0.00128329
2.80393e-05
0.000775067
0.000682459
0.00115227
9.59095e-05
1.34949e-06
0.00083379
2.59664e-06
0.000136665
0.00125762
8.17964e-05
0.000805646
0.000711343
3.70595e-05
0.000899964
0.000234304
0.00112698
5.51065e-06
0.000739075
2.00093e-06
0.0011582
5.73187e-06
0.00093757
3.14312e-06
0.000139344
6.42202e-06
0.00106715
0.000904646
0.000414031
0.000484213
3.70148e-06
0.000414381
0.00048746
0.00095699
9.84131e-06
1.72816e-05
0.00112134
6.71712e-06
0.000123458
9.20259e-05
0.000838564
5.25902e-06
2.62176e-05
0.000286151
0.00032171
6.42107e-07
1.32564e-06
4.12071e-05
0.000442375
0.000559338
4.97993e-05
0.000789382
0.000574833
1.50124e-05
5.58705e-07
1.31361e-06
0.000791827
0.000748344
0.00138703
2.14167e-06
7.94206e-06
8.42972e-06
0.00094897
1.6288e-06
8.03235e-07
0.000210913
0.00102363
0.00123084
0.000876377
8.80401e-07
6.89037e-05
0.00119957
0.000535814
0.000807695
1.50188e-05
0.000862498
1.6856e-06
3.18648e-06
1.40609e-07
1.55414e-08
1.48241e-08
6.05019e-10
9.20392e-10
0.000232796
5.32353e-05
0.00115416
0.000851005
0.00103584
0.000844426
0.000100529
4.94242e-05
0.000622648
0.000446079
7.16809e-07
0.00131095
0.0007854
0.000993606
0.000848748
0.000913156
1.54931e-05
0.000145467
0.00044593
0.000958058
2.91556e-05
0.000767636
0.000572995
8.40447e-06
0.000840842
0.000775381
0.000671268
0.000140058
0.00147147
9.70848e-05
0.000756453
5.18626e-05
0.000916121
0.000633147
0.000916466
0.00128992
0.000791744
8.28007e-06
0.000530538
0.000770698
1.82759e-05
1.59827e-06
0.000839479
0.000806745
0.0011025
3.73752e-06
9.63822e-05
1.95006e-07
0.000961638
2.75295e-06
0.00103754
2.17742e-06
0.000754751
0.000956152
2.31198e-05
0.000131778
7.02552e-05
0.00114225
0.000343657
1.36537e-05
3.25489e-06
3.13705e-06
0.000291644
1.55466e-06
0.000258871
0.00116248
6.33981e-05
4.0681e-05
0.00128973
0.00122894
1.08113e-07
2.35544e-06
0.000157168
0.000184224
6.91605e-07
8.20992e-05
0.000481223
0.000934342
6.56556e-05
5.80135e-05
0.000876668
5.88416e-05
0.000154894
0.00010852
2.90748e-06
7.6768e-08
0.000601636
4.11506e-05
0.00100706
4.5669e-07
0.000837855
4.74801e-06
3.50933e-06
0.000280049
0.00102023
0.000888043
0.00085042
0.000238245
0.00122968
0.00133794
0.00100446
0.000233665
0.000117932
0.000967675
0.000330684
0.00050764
0.00102039
0.000103465
0.000920916
0.000180727
0.00122326
0.000803762
0.00121517
0.000141805
0.000167315
0.000875028
0.000839033
3.13761e-06
7.27274e-05
4.62717e-05
0.000862654
0.00050764
0.000922286
5.29639e-05
0.00169021
8.6673e-05
0.00137066
0.000354653
0.000914811
0.000156376
0.000924771
0.000109935
0.000980015
0.00106685
0.00076794
0.000266802
0.000319694
0.000145708
8.66605e-09
3.80019e-05
8.05582e-05
0.000842146
0.000837997
0.000413073
0.000327235
0.000523365
0.000811888
4.1137e-05
0.00094046
0.000474947
2.53581e-09
2.35051e-06
1.17654e-06
3.34518e-05
0.000818018
0.00012753
0.00134526
0.000726277
0.000977127
0.000833111
0.000477622
0.000380587
0.000107042
0.000440672
7.65359e-05
9.93061e-05
0.000433288
0.00101516
6.73088e-05
3.0692e-05
6.83911e-08
5.83724e-05
4.84739e-05
0.000209998
9.4089e-05
0.000118824
0.00123583
0.00122261
5.73567e-05
1.17823e-07
0.000844686
7.08657e-05
0.00100783
0.000155561
0.000147841
0.000800116
0.000500243
3.76471e-05
0.00084135
0.000191902
0.000775625
0.000934081
0.000928901
0.00018972
0.000771784
2.87709e-05
0.000153081
2.88147e-05
5.65799e-06
2.44331e-05
0.000915873
0.000183146
0.00121541
0.000709586
0.00123679
0.00114884
0.00142303
0.000125726
0.00094808
0.00171622
0.000274706
2.37515e-05
1.6332e-05
0.000827073
5.07204e-05
1.02128e-07
1.8705e-06
0.000309754
0.000222752
0.00126118
0.000415702
0.00135797
0.00143114
0.00013092
7.11247e-09
0.00151771
0.000870655
1.34436e-05
1.06215e-07
5.83885e-05
0.000826061
1.71974e-06
0.000925346
0.0011713
0.000901092
4.66519e-05
0.000693708
0.000917166
6.96844e-06
0.000744101
0.00117947
0.000954648
0.000194255
0.00092465
0.0012539
0.000118173
0.00015918
1.49423e-06
1.40998e-06
0.000117312
0.000502418
1.77522e-08
5.01513e-06
0.000762082
0.00110935
2.0718e-06
0.000589703
3.8537e-08
3.42381e-09
2.23294e-09
5.11903e-08
2.5547e-07
1.68624e-06
1.36752e-06
3.0554e-07
0.000505613
0.00116621
0.000948871
2.89087e-08
0.000389608
1.61032e-05
0.000181348
0.00118117
0.00106256
0.000841615
0.000300549
5.11298e-06
5.72891e-06
0.000174834
1.13491e-06
0.001054
2.22084e-05
3.18383e-05
0.00141456
0.000891507
9.1553e-05
0.00096964
4.33986e-06
0.00105571
0.00126071
1.14241e-07
0.00122731
0.00106637
7.09048e-05
9.04123e-05
0.000222998
9.36658e-05
0.000567536
6.27387e-05
9.61539e-08
9.1029e-05
0.00029181
1.37648e-08
3.60251e-05
6.25473e-06
4.98346e-05
0.00110693
0.000813537
3.09897e-06
0.00115155
0.000162517
5.99877e-06
0.000884171
0.00152507
0.00133276
3.21869e-07
0.000765315
7.27497e-06
5.54003e-05
0.00030779
4.24882e-05
0.000953514
0.000522091
0.000880851
1.16573e-06
0.000373066
4.39229e-05
0.00136238
0.0001495
0.000611986
0.00039193
2.68736e-05
0.000353867
0.000201766
0.00128134
1.31518e-06
0.000104416
0.00103789
0.000694823
6.31288e-07
0.000716795
0.00107772
0.000472176
0.00021884
4.4493e-06
0.00129133
0.000336469
0.00079637
0.000322021
0.000164841
0.00109941
0.000997799
0.00106514
0.000163802
4.7169e-05
0.000499213
4.6519e-05
9.04078e-06
2.15704e-06
2.36518e-06
0.00107288
9.69749e-05
0.000300945
9.62671e-06
1.73227e-06
1.31826e-06
2.41579e-07
9.3589e-08
1.92123e-06
0.000995452
0.00124199
0.000887613
9.25958e-05
5.66403e-05
4.15376e-06
3.30266e-07
0.00112556
4.1727e-05
0.000372689
0.000160714
0.00033981
0.00146935
2.07126e-05
0.0010872
0.00106836
8.7563e-05
0.00112871
0.000552321
0.00085849
0.00108648
4.19041e-05
0.000408419
0.000873954
2.08429e-06
0.000145258
0.000956448
4.48122e-05
7.26706e-05
6.02918e-05
0.000480629
0.000605614
0.000379423
4.25772e-06
8.21826e-05
4.64425e-05
2.18909e-07
5.44773e-05
6.76466e-06
8.20813e-05
6.30488e-05
8.89959e-05
0.00113745
0.00136972
4.91389e-05
3.84741e-05
0.000464554
0.000971757
0.000438859
0.00152111
2.07226e-05
0.00061675
0.000780259
3.74715e-05
4.57383e-05
0.000765688
3.55509e-05
0.000597753
2.42057e-05
0.000855102
0.00098996
0.000103443
3.91365e-05
5.62502e-05
0.001481
5.27489e-05
0.00107219
0.00088138
2.29006e-06
1.40797e-05
0.000280077
2.54068e-05
0.00114809
0.00106505
0.00139735
0.000725598
0.00122013
0.000989518
0.000815843
1.11959e-06
0.000635481
7.28101e-06
0.00147216
3.13497e-06
0.000786199
3.21476e-05
0.000990767
0.00113715
1.12294e-05
0.000774469
0.000808776
0.00122333
0.00134605
0.000109964
2.36951e-05
0.000488504
4.01007e-07
0.000136026
1.02706e-05
0.00125629
3.84903e-07
0.000117248
1.26193e-07
0.000924674
0.000749078
0.000342751
3.48662e-06
5.88148e-05
9.01456e-07
2.0731e-05
0.00101003
0.00113674
5.10576e-05
0.000302764
0.0001843
0.00107366
6.28503e-05
1.07381e-05
0.000625661
0.000795097
0.00111298
0.000509304
1.11736e-05
0.000573727
0.000293719
0.000502902
6.79437e-05
0.000182192
2.30007e-05
0.000818692
0.000240773
0.00059243
2.68713e-05
0.000803802
0.000970639
0.00155093
0.00107726
5.97445e-05
5.32632e-06
0.00014962
0.00019014
0.00156567
0.000236248
0.00124506
0.000244437
0.000590901
0.000774037
0.000224967
4.55587e-05
0.00162117
5.96123e-06
1.4242e-06
0.00165098
4.96895e-06
0.000655714
0.000304014
0.000374041
0.000108363
8.19477e-05
7.98474e-05
0.00101781
5.76118e-07
0.00133732
0.000825474
0.000199166
0.000648219
3.02199e-05
0.000512848
0.000808332
7.69148e-07
0.000662325
0.00128787
4.10906e-06
0.000967606
0.000760252
5.83603e-05
0.000293607
0.00127049
0.000432033
0.000360735
3.41981e-06
0.000747591
0.00101028
6.80378e-05
5.16739e-06
0.000876177
0.000476774
0.000740904
0.000853958
0.000432721
0.000615239
0.00013588
0.000330129
0.000182497
9.16365e-05
0.00105045
0.000919594
0.000109116
0.000122835
0.000136509
0.000160996
6.0289e-06
0.00114435
0.000727891
0.001092
0.00126505
0.00123407
0.000523777
0.000521291
0.000646355
2.96449e-05
0.00131087
0.000229502
0.00127164
1.12677e-05
2.59761e-06
5.06421e-06
0.000767006
0.00125573
0.000542498
6.62034e-05
0.000735336
0.000390666
0.000484698
0.000774797
0.000296439
0.000259734
0.00026443
0.000182478
0.00156076
0.00100016
3.70914e-05
5.21752e-05
0.000745334
0.000955053
0.00141949
3.09597e-07
4.95793e-07
3.79965e-06
3.92805e-07
8.20805e-07
4.81501e-06
1.08339e-05
2.19567e-05
3.2981e-05
7.88934e-07
0.000157829
0.000849463
0.000992686
0.000541752
0.00120685
5.98959e-05
8.27269e-05
2.57576e-06
1.43764e-05
1.39926e-06
0.00124073
0.000892318
5.26632e-05
0.000908379
0.000257502
0.00021728
0.000325334
3.19615e-05
6.2492e-06
0.00114279
0.0012518
0.000184877
0.000548487
0.000145578
0.000108664
0.000248408
0.000310916
7.41466e-05
0.000777021
0.00019526
1.76802e-05
0.000916201
0.000813834
3.724e-05
0.00126078
0.00109865
0.00032687
4.69907e-06
0.000519785
0.000995528
1.35876e-05
0.000136143
0.000976098
3.20135e-05
0.0014888
0.000771809
0.000943293
4.64637e-06
0.000372255
3.09921e-06
0.000338181
9.92176e-05
1.26743e-05
8.734e-05
8.81637e-06
0.00162475
0.000481701
0.00109971
5.29678e-05
1.01837e-06
0.000440514
3.80176e-05
0.000822702
0.00123922
0.000645339
6.5741e-05
0.00084754
0.0012347
0.00105723
0.00116474
9.78699e-05
5.03489e-05
0.000460817
0.00109825
0.000248039
0.00113751
0.000830401
0.000810687
0.000927763
4.03948e-05
0.000461205
0.00021605
9.57954e-05
0.000340314
0.000202269
0.00103253
2.50596e-05
1.03265e-05
2.33661e-05
0.000235593
1.77329e-05
0.000125826
7.19786e-06
7.46302e-05
0.000103891
0.00109643
0.000554388
8.64647e-08
3.32574e-05
0.000693857
0.00133272
6.94605e-05
0.00113216
0.00106787
3.17544e-07
1.03202e-06
6.48927e-08
0.000154222
0.000809209
0.00105868
9.21929e-05
0.000268407
0.000490746
5.85831e-06
0.000208286
0.00149714
0.000929141
0.000223445
0.00114688
8.09621e-08
0.000390784
0.00126287
2.37214e-08
5.12586e-09
0.000495869
0.00110197
0.00138861
0.00111807
0.0004974
6.97654e-07
0.00108228
1.6069e-05
0.000718441
1.53746e-08
4.64089e-05
0.00126607
0.000103227
0.000445518
0.000556247
6.26348e-05
2.46415e-05
0.00114846
0.000158635
5.27363e-06
0.000119215
0.00107241
5.05223e-05
0.00123639
0.000204636
0.00126822
0.00110275
0.000799846
3.59267e-05
0.000320346
0.000858342
4.44852e-06
0.000910445
0.00120206
0.000218532
7.31446e-06
0.000752063
0.00026584
0.000559154
5.72462e-05
0.000216219
0.000357427
0.000154689
5.08073e-05
6.35522e-05
0.00111354
0.000425853
8.19437e-06
0.000489479
0.000436914
0.000113195
0.000585326
5.3673e-06
2.76226e-05
6.49233e-05
0.000191267
0.000172746
0.00022317
0.000120832
4.00168e-05
0.000532743
0.000670577
5.14177e-06
0.00119021
0.0012189
3.80222e-05
5.42509e-05
0.000133885
0.000318148
0.000452961
6.14258e-05
0.00116041
1.91877e-05
0.000239841
0.0010605
0.0005547
0.000567578
4.03576e-05
0.000129541
0.000986454
0.000112615
0.000124066
0.0010746
0.000339379
5.6762e-07
0.00104602
6.41916e-06
0.00140807
0.00036838
0.000469347
0.00127567
0.000839038
1.43128e-07
0.000516276
9.36926e-05
2.28052e-05
0.000498104
0.000520341
0.000476798
0.000558966
0.000655776
0.00129973
6.2358e-06
0.000616137
4.76842e-05
2.45187e-05
0.000477341
0.000120343
6.57711e-06
0.00119491
0.00114073
0.00102258
2.91878e-06
2.47686e-05
0.0001946
0.0012013
0.00140188
0.000104383
1.92097e-06
0.000194686
6.66527e-06
4.24354e-09
0.000112223
0.000898106
0.000312492
0.000251478
0.00102529
0.000241602
0.00124471
0.000332402
3.86608e-06
7.1141e-08
5.85944e-05
6.34823e-06
0.000195793
0.000369003
4.14783e-05
0.000202235
0.00109548
0.000465971
0.000707433
0.000405268
0.00104194
0.000354247
6.52666e-06
0.00146369
6.11501e-05
0.000770535
0.000484865
0.000626083
0.000137047
0.000207923
0.000161007
0.000183445
8.70626e-05
2.98795e-05
0.000321941
0.000186087
5.92539e-05
0.00108506
7.05821e-06
0.00133481
1.33123e-05
0.00116623
4.25337e-06
0.000653894
0.000401683
0.00113169
2.12058e-05
0.00122851
0.00116327
1.72e-05
0.000166068
0.000234815
0.00125145
0.000162634
0.000425331
0.000352713
1.04768e-06
0.0010427
0.000208812
0.00105358
8.91496e-05
0.000750156
0.00121462
0.00175872
0.000105059
0.00132758
0.000996819
0.000910348
3.7861e-05
0.000971662
0.000905018
6.88124e-07
9.14849e-05
0.00101413
9.56789e-06
5.46378e-06
0.00108728
0.00111455
6.22436e-08
0.00017078
0.00091765
0.000602185
6.86726e-05
0.00176846
6.72711e-05
7.68279e-05
7.67625e-05
2.17723e-06
0.00130132
0.000305383
0.00109283
0.00132225
1.42991e-07
0.000116291
0.000344458
0.000281643
1.94027e-05
0.0011334
0.00103917
4.64462e-05
0.000279746
3.54927e-05
1.99102e-07
4.58095e-05
2.49315e-07
8.23958e-05
9.96723e-05
7.33795e-05
5.31357e-05
7.46734e-06
8.28004e-05
0.000549029
0.000687742
1.0467e-05
6.35649e-05
0.000820911
0.000378235
0.000888126
0.000299575
0.000305293
6.7936e-05
0.000865806
0.000673797
0.000144068
2.40793e-05
0.000366388
0.000213431
0.00108874
0.00119581
0.000949231
0.00087908
0.000666021
0.000235691
0.00123448
0.000172318
0.0010474
0.00113987
2.09511e-05
0.000976907
0.00163429
0.000107729
7.74669e-06
0.000744771
0.000187646
0.00127038
0.000144243
0.000539902
0.000688351
5.90888e-05
0.000496075
0.00038384
0.000456694
6.50519e-05
5.58105e-07
7.49744e-07
4.91273e-05
6.82777e-05
0.00119162
0.000897888
7.63252e-05
0.00010744
0.000188328
0.00100164
0.000291002
2.37013e-07
0.000272873
0.000758267
0.000407566
0.000357999
0.000874652
0.000137007
0.00010277
0.000117349
0.000324811
0.000469749
1.00766e-05
0.000327929
1.45606e-06
0.00136726
0.000326931
0.000141496
4.50711e-05
1.01281e-07
0.00102933
0.000271937
0.000161668
0.000756344
0.000917145
0.000141125
0.00098154
0.000499733
0.000107994
0.00108727
3.18059e-05
4.36532e-06
0.000633246
8.09083e-07
0.000373248
0.000936676
0.000104162
0.000775125
0.00111415
0.000438997
0.000551495
5.23943e-05
2.1626e-06
0.00150876
0.000291195
0.000173159
0.000112546
6.13268e-07
0.000114728
0.000634334
1.39148e-05
0.0010938
5.64389e-05
0.00179314
0.00126713
0.000223658
3.8637e-05
0.000405079
0.000497566
1.21033e-07
5.82175e-05
3.67858e-05
8.00238e-05
1.71074e-07
4.4247e-05
0.0007013
0.000172702
5.45612e-05
0.00124646
1.18277e-07
8.63992e-06
6.5488e-06
0.000932507
2.96271e-05
0.000128884
0.00103071
2.10437e-08
0.00108983
9.79189e-05
0.00104889
0.00016731
6.78272e-05
0.000111971
0.000676704
0.00017312
0.00017226
0.00022326
0.000180155
1.09576e-05
9.70024e-05
0.00158901
4.97241e-05
0.000204961
4.20231e-05
0.000116504
0.00116571
4.23621e-05
0.00102489
0.0003208
0.000568353
0.000705531
4.23248e-07
4.59811e-05
8.51748e-06
3.58488e-05
0.000628874
4.69497e-05
0.00134654
0.000162662
3.01566e-05
4.07158e-06
1.63323e-05
0.00128132
6.20944e-06
4.3962e-05
7.2743e-06
0.000151615
0.0010509
0.00101709
2.307e-07
2.61326e-07
2.06811e-08
7.98447e-09
1.05485e-08
1.36778e-08
4.73566e-10
7.93206e-10
0.000861961
0.00107823
0.000664924
0.0013276
3.64436e-05
0.000115327
0.000414403
0.000177387
0.00103725
1.09609e-05
5.66417e-05
0.000672492
0.000107595
5.23021e-07
0.00101626
3.97313e-05
1.51548e-05
6.74696e-05
0.000141615
0.000773594
3.40259e-05
0.0010337
0.000148285
5.14896e-05
0.000735255
1.1917e-05
0.00103286
0.0012474
8.90985e-05
0.000997092
1.10954e-06
1.64751e-05
0.00112784
0.000112222
7.16265e-05
0.00132812
0.000915959
8.29907e-05
6.05056e-06
0.00109158
0.000903677
0.00141088
0.000205185
2.71524e-06
5.7321e-05
6.91679e-05
6.47824e-05
3.04193e-05
5.72625e-05
6.7246e-08
0.000246427
1.5858e-06
0.00117627
0.00103101
0.000533765
0.000249868
4.19228e-06
4.00277e-05
2.89944e-05
0.00109383
2.13987e-06
0.000414045
0.000683509
5.42877e-05
1.06609e-05
0.000108749
0.000248799
4.9352e-07
0.000120041
0.000999544
6.19971e-06
0.000176491
1.67789e-06
3.29603e-07
1.26572e-06
2.10083e-06
5.76086e-07
5.04566e-05
0.000325289
0.000982313
6.73824e-05
0.000868313
4.84119e-07
6.29684e-06
1.80799e-06
1.66692e-05
0.000108405
0.00124366
7.85358e-05
8.76651e-05
8.95023e-05
0.000132131
0.000938159
1.32653e-05
0.00115853
0.000306462
0.000179954
0.00128869
0.000548643
0.000694575
1.32444e-06
1.10929e-05
1.26353e-06
4.01777e-08
1.33294e-07
2.22711e-06
2.36037e-06
1.13973e-05
0.000380795
0.000853754
4.01512e-05
0.000446158
0.000565565
0.000147445
0.00156066
8.27392e-05
0.000407337
0.000786609
1.09658e-05
0.00112365
0.0011799
0.000254599
4.07945e-05
0.000108355
0.000164769
0.000890255
0.00104988
0.000113259
0.00078347
0.000951123
0.000967246
0.000920932
1.86095e-08
0.000311223
4.89427e-07
4.38127e-05
0.000958099
4.66204e-08
0.000814484
9.84096e-05
0.00113424
0.000152922
0.00122769
0.000339521
8.1597e-05
0.00081063
0.000873197
0.00113973
7.06355e-05
4.7652e-05
1.16337e-05
0.000166156
2.79053e-05
1.82342e-05
0.00125203
4.36332e-05
6.17503e-05
0.00120315
0.000224705
0.000459839
3.50118e-05
0.00106908
0.000862206
0.00109419
0.00116473
2.06509e-08
0.000146993
5.77812e-05
6.72664e-07
3.61231e-10
0.000379325
0.000819707
3.53557e-05
0.000364809
0.000891733
2.26369e-07
0.00104768
4.87433e-05
0.00133233
0.000304816
0.000230866
0.000660526
9.37884e-05
3.55033e-06
0.00107871
0.0011663
1.45367e-05
0.000288343
0.000127663
0.00015585
0.00102545
3.35366e-05
4.29334e-07
0.00119037
0.0010601
0.000769353
0.0013149
0.000480391
6.3107e-05
4.52818e-05
0.000110727
0.000216652
0.00149222
5.59362e-06
5.24062e-05
0.000645369
0.000671396
0.00052131
7.03187e-05
0.000205719
4.52252e-05
0.000252007
3.27168e-06
2.05318e-06
0.000326859
0.00106579
0.000178535
0.000848586
0.00081156
4.19742e-05
0.000284411
0.00110473
2.55063e-06
0.000204992
0.00029693
0.000232649
0.000207315
0.00108703
0.000887844
3.1234e-05
0.00125572
0.000248498
0.000347617
0.00104197
0.000519519
0.000651859
6.03354e-05
1.51716e-05
0.00096861
0.000834233
1.98623e-05
3.90202e-06
9.22017e-05
7.88527e-05
0.00165131
4.36495e-05
6.28158e-05
0.00021497
3.27262e-05
0.00123505
0.00100031
0.000473755
0.00113987
3.94386e-06
4.02557e-05
3.83847e-05
0.00101098
1.61755e-06
0.000226108
0.00029352
0.00071283
7.95605e-05
0.000105712
0.000925848
0.0011804
8.28637e-05
0.000888692
2.95531e-05
0.000224218
0.00102086
5.15918e-05
8.32491e-05
0.000872486
2.18148e-05
1.37111e-05
0.00105686
3.65525e-07
0.000955725
0.00130185
0.000100104
0.00139643
0.000170137
0.000952861
0.000667581
0.00167624
2.70383e-05
0.000517764
0.000274249
5.14449e-05
0.000926914
0.000112042
0.000527569
0.000106079
1.44386e-06
0.00092926
0.00131409
3.12351e-05
0.000855694
0.000329022
0.000305741
0.000181637
0.00051391
0.000500551
4.69159e-08
0.000989426
0.000629301
0.00131974
3.95897e-05
0.000273243
0.00147286
0.00100157
0.00104786
0.000826242
0.000979255
0.000930399
0.000768311
4.71945e-07
4.11362e-07
0.00117213
3.35815e-08
8.47238e-08
0.000714824
1.90613e-05
0.000138013
0.000248489
2.77955e-05
4.91876e-05
0.000162473
0.00059264
9.11026e-05
6.69071e-05
3.91945e-05
0.000609751
0.000205426
3.94477e-05
5.46956e-05
0.000698103
5.12473e-05
0.00010542
0.00120734
5.10339e-05
0.000283146
0.000115001
3.45348e-05
6.78765e-08
0.000121072
1.86857e-05
0.000849459
0.000132438
4.95217e-05
0.000913294
0.00105651
0.000453708
2.25884e-05
4.24317e-05
1.23992e-05
0.00100089
8.10157e-05
2.21477e-05
1.27268e-05
2.8536e-06
3.43482e-06
1.05449e-06
0.00177369
7.24804e-05
0.00166558
4.60339e-05
0.000124785
0.000384925
0.00114458
8.15492e-05
0.000985169
0.00111559
0.000439632
0.000556218
0.000525834
0.00102184
5.80722e-05
6.52553e-05
0.000429227
0.000610847
0.000487582
0.000371154
0.000136839
0.000276253
1.25419e-09
0.00111447
0.000585688
8.49568e-05
4.21917e-07
0.000762002
0.0018016
0.00106051
2.51399e-06
0.00106707
0.000287192
0.000781719
1.00121e-06
7.06231e-06
5.28844e-05
6.81256e-05
0.000486439
0.000146815
1.3271e-05
1.3662e-05
0.00136119
1.73707e-09
0.00111606
2.30083e-07
0.00107623
0.000186324
0.00068003
0.00107071
2.72202e-05
0.000199168
0.000361614
1.33118e-07
3.76715e-05
3.21234e-05
7.8076e-06
3.88085e-06
7.02415e-06
6.75053e-05
0.000958466
4.92623e-05
6.47145e-05
4.53841e-05
1.19067e-05
0.00117488
0.000440501
0.00104674
0.000155973
0.000607706
4.45583e-08
0.0010198
0.000972145
0.000803149
0.000236145
0.00101164
0.000327269
0.00110284
0.000512221
5.34223e-06
7.40189e-06
0.00100411
0.000237213
0.000975497
0.0013217
7.8564e-05
1.27756e-05
0.000122237
0.000334373
0.00126983
0.00041602
0.000119441
6.16783e-05
1.44817e-05
0.000112009
9.99409e-05
1.19855e-06
0.00109804
0.000148066
0.000879399
0.000120335
5.79278e-05
0.000993338
0.00083185
0.000300796
4.96637e-05
1.22232e-05
0.000229007
8.45828e-05
0.001137
0.000564889
2.0909e-06
0.0011981
0.000938902
7.83889e-05
1.84497e-06
3.66559e-08
0.0011588
0.000998401
0.000650896
3.36806e-05
0.00128827
0.0012643
5.24054e-05
7.31796e-05
0.000217661
0.00106854
0.000199709
1.14823e-07
0.00105475
0.00145298
3.05264e-05
6.20089e-05
0.00014841
0.000822553
0.00083776
0.000728218
9.52805e-05
5.0667e-05
0.000732539
2.26557e-05
3.16461e-06
0.00142024
0.000547066
2.281e-06
1.29185e-07
1.20787e-07
1.29585e-08
2.02847e-05
4.70451e-06
0.000132364
0.000248112
0.00107613
4.11603e-05
0.00113112
5.59591e-05
0.000827969
4.69932e-07
5.42111e-06
5.54548e-07
0.00121981
0.000801119
0.000911871
0.00106658
9.76338e-05
0.000930925
3.3784e-06
0.000208218
0.0015295
0.000645083
3.27044e-06
5.25009e-05
2.51855e-06
0.000388848
0.000561395
0.000946054
0.000520016
0.00101493
7.92417e-07
0.000219597
0.000882017
0.0011477
0.000504042
0.00136034
4.4431e-05
7.75146e-05
0.00123239
2.5278e-06
0.000864038
0.000110002
2.63488e-06
4.05016e-06
6.69203e-07
8.53517e-07
1.92896e-05
0.000545697
0.00104579
3.42828e-08
4.04923e-08
2.7488e-09
1.47501e-09
0.000442779
0.00042464
2.26244e-05
0.0011201
0.00082193
0.00046759
4.65394e-05
9.26553e-05
0.000161626
0.00108764
0.00102973
0.000925631
0.000130543
0.000862052
1.16537e-05
3.31396e-06
0.000845647
0.000795608
3.02155e-05
0.0010775
0.000716512
8.75093e-07
0.00128314
0.00116982
0.00122032
0.000112564
0.000381729
0.00111089
0.00121408
0.000513639
0.000771325
0.000517685
0.000246549
0.000458255
0.000567513
2.20218e-05
0.000909996
0.000145897
0.0001017
0.000939996
3.99472e-05
0.000841218
7.74598e-05
6.21378e-05
6.9119e-05
0.00108249
0.000971027
0.00108146
9.5601e-05
0.000438854
0.00152178
0.000830181
0.00109668
0.00131872
0.00134331
5.13398e-05
0.00133198
0.000783161
1.10043e-05
5.55432e-05
8.50834e-05
0.00117255
0.00100508
0.00117058
8.41354e-05
3.34772e-07
0.000978921
1.93523e-06
0.000869692
7.96135e-06
0.000767504
0.000426288
0.000703228
0.000863958
0.00114518
0.000852193
0.000310893
0.000187027
0.000317126
0.000115964
3.8141e-05
3.61998e-07
7.0249e-06
9.47674e-06
0.000277052
0.00101478
0.00124419
0.00105004
3.50836e-05
4.05611e-06
3.2997e-05
0.00104986
0.000247868
7.06062e-05
7.87825e-05
1.76406e-07
4.44895e-07
0.00172059
0.00175659
0.000467817
0.000273392
0.000930303
5.17045e-05
0.00093394
0.000610591
0.000737789
0.000481837
0.000346635
0.00023836
0.000112604
0.000494464
3.85819e-05
0.000895626
5.56945e-05
0.000437274
1.20369e-06
1.17685e-06
3.44469e-08
1.17403e-07
3.07512e-05
0.000131104
0.00118353
1.02557e-05
0.000181765
0.000879903
2.76263e-05
0.000790258
3.36956e-05
4.04544e-06
0.000250625
2.64037e-06
0.000874972
6.7034e-05
0.00105149
0.000814962
0.00126749
2.71744e-05
0.000953187
0.00109307
0.000175484
5.86511e-05
0.000108938
0.000241075
0.000903924
4.48791e-06
4.37877e-06
1.82534e-05
1.87044e-05
9.1286e-06
0.00110809
7.98661e-06
0.000908983
0.000834399
4.57368e-06
0.000147783
0.000107958
0.00132771
3.0121e-07
0.000971453
0.000114481
4.49199e-05
0.000881707