/*--------------------------------*- C++ -*----------------------------------*\
| =========                 |                                                 |
| \\      /  F ield         | OpenFOAM Extend Project: Open source CFD        |
|  \\    /   O peration     | Version:  1.6-ext                               |
|   \\  /    A nd           | Web:      www.extend-project.de                 |
|    \\/     M anipulation  |                                                 |
\*---------------------------------------------------------------------------*/
FoamFile
{
    version     2.0;
    format      ascii;
    class       volScalarField;
    location    "2000";
    object      omega;
}
// * * * * * * * * * * * * * * * * * * * * * * * * * * * * * * * * * * * * * //

dimensions      [0 0 -1 0 0 0 0];

internalField   nonuniform List<scalar> 
26307
(
3.2863
2.60003
6.07069
1.99442
4.19162
3.01903
8.21164
6.9012
3.56314
3.98385
22.002
16.5205
2.59203
6.76995
8.96951
4.50767
33.7441
4.51386
2.57942
6.78228
2.40043
8.35735
2.74833
3.29872
6.4122
4.95687
4.38885
7.71515
3.02478
2.49067
4.26814
6.16532
2.62765
3.82314
3.62627
36.8324
5.15331
2.42506
3.39254
5.62465
4.17783
4.4836
1.87298
2.5052
9.08589
16.1305
3.79262
6.29435
5.28043
1.9912
6.99896
1.8357
5.45347
3.76449
3.57443
14.1108
6.32269
3.69817
6.44326
4.44229
12.2125
5.80759
5.60196
4.3362
7.04169
12.9277
6.44171
3.81786
25.4512
7.1003
6.4121
18.1913
3.2799
4.06557
6.40282
4.98773
10.0291
7.1936
2.00233
8.6956
16.7806
2.80677
13.2914
7.15737
5.63593
6.21198
9.96999
13.6599
4.201
3.25954
3.05799
2.60131
3.56186
5.06877
13.4021
4.18282
1.74939
6.69163
3.96186
3.5926
7.28305
2.38979
2.84081
3.28217
23.4001
11.6768
11.9319
3.67188
3.84149
15.2516
5.74526
8.48869
5.20636
6.14627
3.38105
14.7468
8.82437
17.8372
6.40207
3.3054
4.0291
5.95871
13.5009
8.43734
8.22476
8.84438
6.41699
18.7743
15.043
5.05657
5.30804
5.56416
5.89277
19.1481
9.93644
3.29763
6.63618
3.64792
4.64585
2.97074
3.32443
9.7858
36.7146
8.67053
6.34518
7.2941
7.71769
2.95841
2.87607
4.25606
5.5757
21.1921
3.02527
4.66434
5.35659
4.45533
2.30792
32.9736
4.63798
2.54472
31.0212
3.41365
34.9427
6.05772
3.23625
6.42761
10.3
6.24623
6.05981
6.723
4.07918
4.07498
4.76487
2.98829
9.86646
2.33642
7.89067
3.29076
3.72698
6.23025
48.5937
24.974
4.64006
15.7786
2.91269
16.0506
7.64366
2.61775
4.33388
4.38064
4.4183
32.7331
4.05264
3.19475
4.17329
15.6643
20.3635
6.77712
12.3324
4.84115
18.8206
2.83078
16.4814
6.49926
4.24972
42.2272
3.1117
14.5775
4.01929
2.30675
18.8706
4.76295
24.2488
6.63325
2.08494
5.91419
12.3031
3.76723
4.85015
2.37654
3.72537
2.0812
10.4531
4.0771
2.82339
3.02866
3.45699
3.45918
5.70279
4.21644
2.76087
10.4872
6.21537
7.88947
5.58962
2.70385
5.50801
2.61732
3.69232
24.8931
11.0005
6.20782
1.61423
2.2784
4.10984
21.7691
6.11659
6.53966
4.1475
2.34103
9.76441
3.41587
5.98605
6.8564
6.96273
5.89605
6.23361
6.49131
35.9631
3.21991
2.9904
21.0846
2.91972
6.75327
3.86918
3.75946
31.772
6.64548
6.28973
17.1824
6.58266
5.8857
5.91058
14.218
3.63556
13.3405
3.1812
3.31441
6.83049
6.25577
9.13253
8.61111
7.52353
3.80679
16.1679
4.30149
21.2048
19.432
22.0342
6.73073
8.1904
7.30813
3.47177
7.87039
7.72212
3.49501
2.716
2.69391
7.74093
18.2169
3.71852
23.4844
7.46476
8.7638
1.80802
1.90198
5.02853
8.06603
22.6709
11.3781
4.49095
17.7842
22.1184
2.68146
7.07143
6.63997
7.33946
3.50099
4.23371
10.303
5.9966
4.14909
25.8461
11.5449
16.238
10.1544
3.30892
6.65276
5.44095
4.21229
4.32245
2.99027
9.90028
7.64631
5.10139
11.7311
3.17588
7.1622
4.31746
4.97011
6.19358
2.28988
3.10507
3.35557
5.74359
7.58663
5.39775
5.106
4.65372
3.66955
7.5711
5.71809
3.22554
2.63366
4.30081
7.55775
1.96747
6.18565
4.67401
3.71773
4.0497
25.7855
6.25609
16.6588
5.12761
6.66856
11.2976
5.71417
2.22307
5.15392
5.62624
7.93241
4.81435
6.99008
3.76643
3.4839
2.96266
5.41587
4.19313
3.14191
6.25572
8.45282
3.21401
5.31008
7.76233
6.18334
5.92458
4.66148
3.99331
2.79895
4.44095
7.50723
6.87594
6.60042
6.18207
4.62136
2.59074
2.79637
3.73898
3.39244
6.76622
3.38745
2.37046
21.2345
19.044
3.05059
3.19956
9.86301
7.53662
23.8075
1.73967
10.3273
2.94992
7.42111
7.14618
2.54681
4.7978
7.7639
11.9431
6.94106
2.29889
7.19194
11.7853
29.027
5.46689
4.57184
26.912
4.33675
3.21359
2.5072
4.34961
10.5753
6.23743
5.81176
6.80746
5.70765
9.25371
5.91186
7.63361
7.30987
6.94026
5.42142
6.48686
3.67254
3.90116
11.1097
3.37475
2.99077
9.07526
6.70487
6.84402
4.10666
6.34001
5.28998
3.13549
2.89721
4.43331
16.6126
5.60849
6.77327
9.6527
17.4232
10.9958
3.98626
3.68757
4.37062
17.4178
27.2055
4.78933
6.10278
6.50301
2.63783
7.81885
7.90168
3.6969
4.03165
61.5801
3.92363
18.0895
2.87529
7.52191
2.24626
6.21485
13.6786
4.90269
3.69094
7.43558
3.50399
6.62056
34.6452
3.35414
3.20173
10.5642
12.9495
1.6733
6.7306
7.68505
3.28232
4.34261
17.5071
2.96423
3.68794
3.34463
20.0589
5.76476
5.64702
2.88286
15.0466
3.61257
6.19905
5.89228
6.29383
6.55927
7.02607
5.68939
2.59923
9.1349
5.35808
5.88218
3.57613
7.9356
3.56837
3.65958
5.01867
2.73412
3.03995
7.13079
8.0913
5.46811
3.96458
3.20061
7.99265
6.3781
19.4294
4.35456
7.29142
32.4194
3.87186
3.37446
2.51304
3.19529
7.35647
28.1692
7.80854
4.61065
6.09764
7.28538
3.05941
25.1056
5.30798
5.19622
5.61064
15.909
3.89077
18.7828
2.73859
2.64949
4.03802
3.87305
8.07308
3.96212
3.7191
6.41988
20.1499
23.0888
6.15848
7.60791
5.40994
19.8639
3.79874
16.5877
6.87538
3.2202
2.83089
13.5459
16.6352
2.77309
8.8274
7.887
4.13753
3.14936
6.53841
2.97886
17.9551
17.9719
7.41476
6.00662
4.63765
13.7027
16.5728
34
6.84217
19.6789
19.4857
5.85868
4.26032
6.1145
4.95264
25.5855
2.589
3.2017
4.17182
7.89809
3.03688
3.27043
16.545
5.09877
30.2163
24.3929
23.6603
20.0568
23.7663
17.8903
31.0536
6.47626
4.30136
6.66116
3.84796
20.3651
3.80198
6.80971
17.5427
8.58717
4.4886
3.1936
3.71317
6.12601
3.58689
4.50021
1.67797
7.02641
7.2581
2.90482
2.9145
6.55886
18.1578
3.90481
3.32002
3.30132
2.05398
3.56597
18.1539
5.18648
3.74586
3.16328
8.08865
5.75721
3.21
2.57729
30.6374
3.11827
5.50635
15.8978
6.41474
2.90301
3.16371
3.11607
10.4173
32.7219
4.23174
3.31063
5.30344
2.71878
7.31781
2.79888
5.32771
25.6231
3.1816
2.64207
3.37039
2.61234
2.93439
8.59533
8.26785
4.05735
16.9858
4.09338
5.44883
14.3
27.2266
6.4003
3.3704
16.4667
16.181
6.0081
1.88327
12.2923
17.0616
7.78206
7.1061
34.5407
2.83293
7.38935
6.92275
11.2933
5.98521
5.30977
13.7229
3.27779
5.91346
7.28492
16.1275
3.96634
34.7069
4.58533
2.36529
6.02184
6.30511
8.06985
1.85625
4.18552
4.31901
4.79262
2.40684
11.2671
4.95496
7.23466
7.70142
4.89625
2.84035
5.41348
4.92605
5.39806
2.90331
5.27057
2.99274
6.73148
5.66164
2.67503
3.73101
29.3582
8.42691
2.83471
7.49594
3.42109
28.5639
3.23377
25.4467
2.20332
2.04488
6.77329
2.66342
6.01672
28.3028
3.63882
2.85119
3.96552
3.65989
2.82485
5.45983
12.6686
33.3621
13.4961
4.88005
5.25284
2.97225
2.27434
3.56164
3.4143
3.18217
3.51511
11.5737
9.29685
15.6594
15.4487
18.872
5.27044
35.5049
3.96854
5.83926
4.22258
4.63032
2.54054
2.66452
5.19503
3.65282
3.62448
20.8476
3.68617
5.12757
2.61783
5.71986
17.0482
26.1502
3.52924
1.67047
3.56154
3.12216
6.02156
2.22026
4.86193
20.2635
3.33083
3.00723
4.51175
2.88902
13.0805
3.27869
3.47846
14.4337
3.33753
13.7088
2.97721
5.84713
6.15721
4.00256
2.85345
2.70673
11.1395
34.2875
16.3046
9.5566
7.22995
12.1759
5.2021
5.52271
3.74815
2.82014
3.15436
4.58641
4.99649
3.24744
2.21358
6.67747
5.78406
3.31524
5.62965
7.80171
12.4484
3.64649
3.73477
1.94986
3.11249
5.61063
4.50763
14.3525
9.85793
2.95352
4.19872
6.32
8.99288
23.8786
6.08791
12.7072
3.36678
5.54537
5.61865
8.66551
5.20444
4.72864
17.2938
2.80238
3.72992
3.32936
4.62542
4.85782
2.69359
3.43098
4.23802
16.7588
17.4177
13.5397
3.71375
12.0778
4.56545
4.82359
6.66622
6.37001
8.17078
27.5737
26.0711
25.7581
26.9409
23.4327
22.1852
22.0527
21.8137
3.52544
3.6645
7.08803
6.16406
3.51203
5.5693
4.40053
4.0765
4.56334
6.58183
3.80765
14.5924
8.01714
4.40778
8.48111
6.85716
5.04717
5.87994
5.10757
2.80345
8.19989
5.32621
32.1943
5.55826
3.0304
19.8783
2.70047
3.38413
7.59612
1.79247
17.9619
37.9054
7.36606
4.46667
11.0978
22.5686
2.06764
21.2277
2.97988
17.7433
10.067
5.79736
3.10164
9.84385
3.21742
6.32576
10.6762
7.02044
1.92797
4.10837
32.5996
2.03843
15.517
3.60574
1.78218
35.6936
5.13239
7.95506
6.44713
6.1351
2.47642
2.59933
5.12062
2.72816
5.37361
4.29623
12.6917
2.58796
1.77948
6.07943
6.95806
6.25212
4.65394
6.131
8.13096
8.23952
4.40709
7.83878
9.63746
11.0103
6.01829
4.16353
6.33347
4.4113
4.07446
5.28739
3.23075
5.08551
4.08379
20.0856
3.86235
25.8728
5.5064
19.2003
5.54554
4.5474
30.7526
3.36927
5.7072
5.38666
5.18355
5.66406
4.7131
5.72909
7.07693
3.0606
5.59023
22.1745
6.85564
4.91793
14.1769
2.96249
11.9358
3.51282
20.8308
3.54168
4.21593
11.2417
2.75099
5.70579
15.5695
4.91139
8.2531
2.72019
3.17536
28.1505
2.43939
3.88505
7.11829
2.45953
7.64658
2.80477
6.5279
7.57612
4.68329
4.37928
2.01539
17.3966
3.23302
39.9935
12.7453
11.4283
8.55472
4.27047
3.35153
21.6321
1.81064
3.04436
5.8391
2.82513
6.60268
6.81738
14.9821
4.04361
4.72597
3.89599
4.53603
5.02949
2.8377
3.60866
3.70428
6.14697
9.79271
5.20955
2.10732
1.76986
13.3944
3.35975
3.96923
10.872
5.03425
7.10881
3.81586
9.22396
1.74861
7.58927
5.45469
3.52055
3.30711
2.50329
3.72933
4.06146
5.07754
6.84936
3.54695
18.5925
3.04897
25.2098
6.35515
3.224
7.25502
5.55823
16.9519
8.65833
2.29888
2.70118
4.50311
2.58721
14.2165
7.58908
3.26783
2.51644
12.4039
4.94329
14.3129
2.80794
4.00466
5.56283
3.2092
2.27458
12.7884
3.59063
21.0917
6.31696
3.48228
6.53418
1.34934
14.0663
2.42373
6.80946
5.0248
5.67964
6.15706
2.95041
6.46885
18.2207
3.31664
5.92381
2.41413
3.75943
32.3628
4.69028
32.1287
3.68383
5.01207
4.02044
34.8575
3.56354
5.9052
1.93051
5.50219
8.50687
29.093
2.65499
3.70116
1.84241
2.21397
1.83334
3.94854
5.66699
5.19442
3.95937
3.63959
3.42836
21.289
5.7859
3.07185
7.86992
5.84901
4.44995
3.88858
3.28989
6.32175
6.57621
5.59075
6.92471
3.22043
3.61193
2.81094
3.25187
50.7211
3.91898
2.98549
6.65402
3.64822
4.11419
5.67049
2.67024
3.1596
23.8697
4.07921
3.01362
3.82504
3.3239
4.86978
3.24806
6.5541
7.18137
6.82713
2.82347
6.27809
5.52877
2.35611
5.39385
5.82923
5.84589
7.77944
2.13374
3.85725
3.71887
3.02508
2.20759
2.55085
15.1646
10.7871
9.16773
5.0824
2.54922
5.3861
3.46894
3.36229
3.60796
4.33444
4.04841
21.319
5.36118
5.4054
5.5883
5.43783
10.2655
14.6267
2.26978
3.28131
3.40171
2.93325
6.62195
4.81489
4.57214
3.85605
4.30805
4.36456
2.21195
12.1376
3.30859
3.92632
2.72202
2.71821
2.8128
3.56342
5.9671
3.9181
4.57273
4.99946
6.38405
6.94145
7.26267
3.61916
16.195
4.62835
19.4785
5.92975
6.01326
7.49627
5.51624
1.78429
3.60589
4.33488
5.84139
23.0675
12.9571
2.73663
2.84644
3.32141
4.48512
3.2806
5.0433
17.1103
2.17644
17.208
1.81214
2.99629
2.36466
5.25982
3.06827
5.61912
2.15977
3.21235
2.86896
3.41114
5.07258
3.45241
3.31433
4.92226
15.6153
4.44527
2.6218
4.3408
28.8556
3.52358
3.91885
4.62416
3.47097
2.8264
2.93524
1.95406
3.35468
5.64214
5.35488
2.51746
9.16488
2.02439
5.01341
22.2986
2.81994
3.4921
2.24897
7.25361
5.4962
29.1611
9.44489
5.94214
4.2152
3.65311
5.63605
3.9814
37.2281
3.58141
3.88399
2.58298
2.2983
2.74823
36.8461
7.8772
3.244
5.53843
4.65241
5.26021
5.36215
3.14993
4.16057
3.30588
5.62223
22.2151
2.22225
2.42517
6.05537
2.28951
13.9902
16.4433
3.12269
2.63357
7.80766
10.7823
8.62967
1.69612
3.28971
3.354
18.759
20.2433
3.14846
3.57005
23.339
3.03032
6.88583
6.7516
8.04159
9.11286
5.68741
5.82454
5.64924
2.38625
4.33955
3.84976
10.3277
4.49212
2.11184
2.63874
2.89968
3.49791
4.07201
6.47408
2.41271
12.9505
4.16079
6.09921
6.14095
3.11078
2.63599
3.36254
3.68737
3.19194
8.89276
5.33344
5.13665
12.1581
2.34155
4.55794
4.67058
4.39444
26.8355
10.0259
5.02811
2.37531
14.4384
1.91278
3.66069
13.5084
3.19541
14.6383
2.50623
6.09344
5.64539
3.01813
1.75101
3.9723
10.7535
2.77758
4.08438
2.36234
8.18829
3.28112
2.84839
11.1568
9.25241
4.33316
4.50335
2.47685
4.73054
33.5731
4.94526
3.5621
12.6244
8.02795
2.39784
2.84287
7.1094
3.39816
27.9364
2.37487
5.48466
3.06533
3.75006
17.9562
2.99039
3.92354
3.6634
38.5167
2.17406
3.02708
3.1135
2.63815
2.22186
4.18913
3.95754
15.6053
7.00896
22.4789
4.59879
5.96663
3.0434
3.05312
3.04133
1.92482
3.28786
2.82729
4.18111
6.80714
1.91348
15.0597
3.34146
4.7105
2.13087
3.82435
3.58015
1.9425
3.30101
12.8134
3.36833
2.40145
2.98298
5.37771
3.66389
5.99337
12.2821
8.75981
6.71945
14.5379
5.56066
2.56238
2.53709
3.21893
3.2697
6.87954
2.88935
5.49014
7.31916
6.21598
2.77073
2.56381
2.84296
4.51715
4.07718
7.0436
4.96248
55.3052
17.34
16.5417
5.09391
3.69555
3.36021
3.10567
2.45507
3.06658
4.24595
27.6528
18.0931
2.33958
22.4736
2.32248
6.8449
2.59543
3.43694
6.49326
6.48212
4.30089
6.68113
3.05599
2.36384
40.8853
2.05512
2.34652
6.1548
5.69942
5.28326
2.77278
3.4504
3.17952
5.6759
2.45662
20.3457
4.09409
4.88045
37.084
4.13316
27.0894
2.68603
14.613
1.77945
5.19678
3.17302
3.42925
5.10383
2.68607
2.70984
5.83761
10.7128
2.49638
3.58446
2.80354
25.6025
2.49364
3.99976
18.4011
7.08487
2.83506
7.24501
3.42579
5.63155
3.71669
2.73524
17.0646
4.52351
3.81209
5.64672
3.2693
3.18286
5.73571
24.5809
12.4107
3.19379
5.94203
8.04409
5.64674
4.67773
22.2713
3.18653
7.10686
3.10294
3.55619
3.45291
7.67737
25.0545
2.8499
7.49125
2.88935
4.20349
6.38912
3.48746
25.4067
3.43507
2.82271
3.55896
38.0716
2.97738
3.11519
14.717
4.03086
2.89295
16.141
6.67833
9.62631
8.08424
4.14262
3.43803
11.7499
42.9952
7.00568
4.31731
4.01762
26.06
6.9263
5.95537
2.26082
5.67045
10.3015
2.92585
6.7552
2.95819
3.39651
2.87957
8.9545
2.17447
2.39957
3.45246
5.68171
2.64683
7.11775
3.0718
15.7775
2.88261
2.69655
6.02295
5.52134
15.5762
5.36944
1.93722
22.1374
11.4411
4.36964
3.27171
3.07906
2.92528
7.23956
3.69346
25.2568
3.49926
4.2356
4.0657
18.1168
5.25561
9.81352
35.6203
2.55438
6.29281
5.6863
2.55902
17.3384
3.28199
3.24704
3.46234
16.8945
1.67021
4.89893
3.74423
3.82822
3.41411
1.60312
4.04789
2.67874
4.02922
3.793
7.98999
5.78707
9.81299
4.94708
1.70361
2.42016
10.0071
8.14834
6.92519
1.7162
6.92753
2.81409
3.98988
3.7514
6.21426
3.20986
18.8223
2.62061
2.51939
4.65238
4.87391
8.24705
17.2775
2.80525
39.4937
3.24622
1.85607
4.83367
4.54541
2.90891
6.02259
2.39497
4.95337
10.6616
3.36978
6.42008
18.4016
6.0602
4.39021
4.58399
2.57129
2.45857
1.81419
6.17184
29.4299
4.62606
4.38964
14.2027
6.36607
3.12922
2.32932
4.62238
2.7492
5.32981
3.41617
27.4706
4.22025
11.3928
7.11526
9.78051
4.83446
54.8555
15.2738
5.07068
6.59822
2.8716
14.9624
4.41094
2.93429
2.21802
6.66266
3.44886
2.58057
3.41252
4.56053
1.81067
3.49586
17.3778
5.11196
14.5415
4.59078
2.45551
4.80051
5.31263
4.89487
4.43893
2.56025
4.20246
3.91002
19.1534
2.88592
37.474
22.5996
3.54636
5.02055
6.04041
2.94947
3.41941
7.05596
12.0692
4.29208
6.94793
2.73158
23.332
2.52023
5.54038
6.81036
9.6352
9.25963
8.43969
8.65909
24.0788
20.2748
17.071
20.5376
6.23424
3.09046
3.37957
5.40392
3.21399
2.78826
2.27372
1.82094
2.8715
3.44796
2.55753
3.3476
2.49053
22.758
5.43246
33.8345
9.54282
2.76579
4.53578
3.09534
20.7994
5.12425
1.86801
4.64473
2.99811
5.43355
2.13909
4.27697
25.5374
6.16569
6.56931
4.44427
3.1094
19.8444
30.8169
3.34962
2.99654
6.54664
20.0932
1.79698
6.60943
3.2341
4.91172
10.9083
24.0966
34.6865
40.6038
4.13884
2.30147
12.5611
5.26484
14.4729
4.31118
1.79797
5.75476
1.72342
15.5722
30.6661
3.32131
1.90496
11.4153
6.47851
6.44572
2.07215
27.3268
40.0828
1.55236
6.71937
19.2501
3.27482
31.0673
2.64772
9.40095
17.7538
18.041
18.2499
18.1159
3.06593
2.18596
3.13518
3.18052
7.52356
12.5767
15.5779
5.16868
4.25273
20.1741
4.67956
2.80551
15.66
14.8593
3.0776
5.53452
7.4016
4.55126
3.58753
4.83024
5.17289
4.41747
4.10489
5.76845
6.44626
5.78149
5.45211
5.85041
6.2268
6.64472
7.07871
2.21223
6.50931
3.18923
7.9887
4.85631
29.4334
2.55897
22.1787
2.32222
5.62501
11.1738
6.48876
2.9844
2.70071
12.149
2.85326
2.73928
3.44359
3.24006
3.04698
3.34738
2.73539
6.37457
6.59337
12.7235
15.8633
13.6141
5.11194
3.69856
25.6783
4.40115
3.73628
6.52227
12.1145
2.845
1.99049
2.72417
3.53139
3.91084
3.57527
3.60791
3.10401
3.10032
5.23102
6.50363
5.93381
3.45211
3.06775
2.23563
2.88114
2.25023
8.1054
10.5949
2.88979
3.27777
3.29643
3.15343
7.97986
11.7289
26.5847
20.3916
9.94416
2.31729
2.09899
3.36588
7.02046
2.90004
7.56606
2.99556
8.20374
3.67443
2.66302
2.32737
5.93162
19.6397
8.27637
4.44976
6.80576
3.01976
1.79077
1.57697
2.90039
5.46686
6.74841
10.9359
4.93558
2.92524
6.99883
5.54742
8.10569
5.26769
6.36977
3.12404
4.96784
2.90318
15.6108
2.06539
3.79652
4.65894
5.03352
26.2427
2.45701
7.21566
3.02654
25.7654
25.5149
2.40132
2.77056
2.6322
3.80006
3.51558
3.58345
4.09448
6.09325
6.14242
2.0244
4.32418
4.39921
2.71834
3.00029
5.6577
21.3285
2.63198
3.84805
3.60886
3.98325
4.44257
4.14318
7.08951
6.49373
3.23707
2.79392
5.53441
4.66337
1.6862
7.1751
3.80415
2.37118
2.89137
2.66724
24.5402
5.24547
5.73101
7.99298
1.84207
5.42426
2.37716
14.2015
5.25849
17.7587
4.59308
4.48605
2.28753
2.92621
1.83489
5.67705
3.95376
15.1032
3.75977
3.36362
1.63347
3.18319
2.59116
1.9469
2.92692
22.4618
31.0022
7.64709
30.8103
8.52675
3.81127
1.6777
3.83978
3.95725
6.29956
3.26107
1.96581
4.17268
6.15465
1.60704
2.51117
2.95439
3.09055
3.63907
1.97036
5.59033
3.10005
5.89931
2.83174
5.5504
3.38909
3.43566
1.6319
3.87752
3.17208
33.1718
1.88335
3.67288
2.32092
21.2571
2.77296
4.60096
3.26434
7.09215
4.77499
3.20386
3.14844
2.13378
3.20704
3.47318
3.15393
2.86121
2.73503
3.62295
6.06022
13.417
2.5609
37.6864
13.9329
1.90304
11.4228
24.1511
1.45254
9.24197
7.41857
2.65057
8.05465
2.69871
3.08064
2.73188
2.3659
4.85254
3.30365
10.6493
9.5462
9.40779
14.8948
1.64709
2.96847
3.42246
3.47953
5.83414
3.34059
6.71391
2.50816
37.9137
39.0587
24.871
2.65951
2.03001
6.2183
6.92416
10.9531
6.76786
7.53555
3.26267
21.4103
1.87751
3.0947
2.22834
6.53184
4.80169
20.6344
3.31986
4.73063
5.01244
4.70511
9.49992
2.5299
2.91561
11.3587
3.35063
4.26945
4.56579
2.48559
2.29631
2.57736
13.1095
4.34948
8.44371
2.51403
11.0707
2.51771
1.90678
3.94841
11.7166
6.83121
2.29002
3.76505
18.3178
14.2903
13.2071
3.36024
13.2312
2.87014
3.72057
3.56002
2.08528
27.4071
2.75765
13.6569
5.93241
2.13834
9.75783
4.75912
6.6242
1.66339
2.69275
13.9637
4.51275
4.31546
4.33012
7.23351
4.03864
2.30968
3.3502
28.9313
56.8372
2.68908
5.98169
3.78811
14.9292
2.37467
5.36661
5.37474
13.8054
7.44666
4.50622
5.97044
1.61534
3.46025
1.70901
7.95327
7.71432
7.16195
4.76851
2.51047
1.74967
3.4381
3.18068
5.60992
21.6999
6.56337
6.40214
3.3929
6.1104
4.334
2.8683
19.1734
7.43305
19.5725
3.24258
4.26678
2.36928
3.6373
23.2553
4.13247
6.18696
3.70228
2.95447
4.66246
16.7408
2.58534
3.58466
6.36621
6.94246
15.8572
6.18049
7.88285
23.3917
15.045
14.5548
6.79348
6.39041
5.94926
20.3066
2.70856
2.7445
2.97722
31.2725
1.96369
6.11854
2.19948
23.8576
7.05159
3.54717
3.8166
2.90577
2.25685
3.69078
3.5905
2.08977
2.37357
31.7391
6.38123
29.1881
22.6984
2.08259
3.1925
9.87046
13.0604
13.2145
12.9269
28.1301
18.1926
3.11082
1.65647
6.01431
3.40826
3.44423
28.1254
1.93801
9.86814
4.83398
5.3682
7.14654
4.82183
3.49583
3.16506
2.45159
6.57545
38.3486
3.78448
4.22537
3.25633
17.597
9.33343
19.8283
12.5102
8.25138
2.57938
7.32796
3.14891
19.6819
3.78125
2.91926
1.87462
7.01474
3.60282
2.53632
2.09579
5.51049
14.0931
3.97383
4.09914
12.5499
12.6107
12.2528
13.5715
7.78896
4.17272
5.98532
24.4264
23.8445
22.7422
22.1426
15.6958
7.98036
8.64797
3.52533
8.14733
13.6994
21.368
1.7781
11.3601
7.67455
7.02434
9.0483
3.14558
3.7443
16.3599
6.06768
6.035
7.29399
3.61957
5.70439
8.52772
17.4333
3.32613
3.00284
2.10076
5.06164
2.52167
1.85677
4.59715
8.32727
4.88724
3.24338
2.80273
4.54805
4.2763
8.29358
3.62713
2.11937
35.2628
3.25665
3.08571
2.65296
12.6446
2.62992
3.91519
3.59274
3.61859
5.01671
4.96578
3.87815
2.0419
4.31434
3.9161
2.83312
4.42361
3.52624
6.80002
6.82358
3.15186
2.92012
2.79461
1.85503
3.52365
6.21322
2.45779
5.56645
3.23701
3.95606
7.2877
4.02248
3.29141
6.80738
2.29137
8.19202
4.38756
3.27646
1.6014
2.67629
2.84485
2.28579
2.86996
15.5273
32.3887
17.5137
12.6448
6.35878
4.01712
5.21136
19.7279
6.53037
19.0189
6.55483
4.26686
26.4065
3.07764
27.2103
18.4667
3.02155
3.967
5.66105
2.10495
3.59881
3.45056
3.61069
8.62118
3.9339
8.16618
4.01509
8.37849
2.74932
3.79942
7.3002
3.24647
2.56986
8.11795
4.83523
4.77024
4.59687
4.77477
5.30331
2.36487
4.24257
8.79966
13.8081
6.46218
4.91243
4.46617
10.5161
23.3492
22.284
23.0212
4.74571
3.7286
6.97859
4.80105
2.6949
16.3153
2.52811
6.73016
2.63706
23.8764
4.08875
2.66976
3.27518
5.91758
6.23702
6.91024
6.01149
4.1487
5.56883
5.81614
7.96059
7.37053
4.19143
2.29597
2.23441
2.27818
15.0951
8.5863
2.60008
38.9122
2.74418
15.1316
6.08661
1.98298
6.68748
1.99951
8.29721
9.34996
9.12536
8.84644
8.2181
7.48305
5.59926
5.52701
5.85237
2.66252
12.6848
3.94636
6.05855
14.2018
3.10404
2.32063
7.48655
5.48811
3.67876
2.52182
5.33329
2.97383
19.7541
4.86954
5.65626
4.39171
2.82648
3.20265
13.9465
5.80598
2.91381
2.62779
2.73928
5.74427
4.04725
5.99413
21.1403
13.3332
18.4137
2.62353
2.69875
9.61413
9.32283
9.73557
4.82601
20.1458
4.65154
4.61965
5.06875
6.4743
5.49604
30.0512
2.56927
6.44664
7.47231
7.96948
4.40396
5.63854
2.64141
2.0407
2.71058
6.33475
4.66731
2.25649
3.67765
3.36619
1.98784
8.25188
8.00106
6.90306
8.49307
9.34457
7.71299
3.4193
5.37647
3.24315
2.45451
7.89492
3.00219
8.99765
10.7002
5.08836
19.4314
7.09144
9.4552
5.08808
5.01697
3.88218
4.8105
4.99958
5.42407
6.73628
8.17972
6.86274
5.04117
4.95416
2.13111
6.96035
3.57005
2.01002
3.90574
1.536
3.60344
16.5122
3.00022
8.6096
2.91751
16.3339
7.01925
10.9969
5.53483
6.96758
5.98603
5.68844
2.83508
1.8382
1.83438
8.04871
2.7491
7.27676
3.2982
3.41312
3.96429
7.43334
3.10234
11.3011
6.1613
2.9976
4.57786
3.87536
6.99377
3.87918
7.02206
3.14913
2.73835
3.5082
2.21045
3.29977
6.49795
6.70117
3.10709
4.59732
5.60141
25.2982
5.13283
13.3928
6.92589
3.28541
9.66067
9.79971
9.76185
2.58824
2.93882
21.9194
5.08665
5.19194
6.10165
5.00094
4.65046
8.35798
8.77537
6.24111
2.73763
3.01052
2.90199
13.2809
2.84721
3.15442
3.33396
6.00289
9.22495
5.86305
10.7201
3.73728
4.53739
5.70863
18.2984
2.26816
2.57471
4.43918
2.65155
4.70001
5.09278
2.08147
4.651
4.80221
3.82837
4.05767
7.84187
11.7508
4.69592
3.86694
8.84349
3.82497
5.70288
3.34288
4.55118
2.36032
3.159
5.55183
8.89619
16.5372
3.61106
2.11749
2.72457
27.6778
3.05936
14.5012
8.2704
12.3791
3.82865
3.81915
6.25804
16.6382
4.41314
4.06492
13.1611
17.2729
20.2567
3.44143
4.40183
2.20448
4.68693
3.0141
5.32177
9.22231
3.82591
8.42722
3.24053
14.7015
4.16417
3.91249
2.08496
4.86624
31.54
5.63149
16.498
2.93773
3.72297
3.41435
5.15078
5.37348
2.67052
5.82023
6.87645
5.22393
5.02952
3.52716
15.0868
3.23913
6.91721
4.81803
4.64923
13.1849
20.369
14.8074
14.4436
2.74338
4.36054
5.57379
3.2272
7.53838
4.00022
3.93095
11.4431
2.23697
3.53342
3.82095
3.62005
4.29795
12.3437
7.0383
4.83066
3.88167
5.7193
4.79272
4.98653
5.17754
2.67988
19.6808
3.4173
8.51466
13.7617
17.1736
2.97312
2.96695
7.8703
7.89831
10.2703
9.86889
12.4492
19.6506
16.7768
3.45042
7.70291
4.10297
3.89027
5.5942
26.3689
3.14156
4.38864
4.22065
5.14732
5.36842
7.78489
4.96456
4.64341
5.76565
8.6536
3.29729
1.76529
6.08891
8.52004
9.93279
3.53954
2.93055
7.55901
2.63718
3.03119
3.80186
8.65852
10.1727
8.42549
2.25587
18.6928
9.27428
3.54308
8.18829
2.92222
3.70881
2.72471
6.56353
5.94234
8.41559
9.52283
19.3748
3.8731
2.72894
2.68207
12.0159
5.53298
5.99842
4.02823
3.03685
19.5946
6.81991
4.96789
5.80064
4.48893
30.1005
27.4001
5.53158
8.05097
2.96343
2.77561
5.93279
15.5891
6.34537
15.9304
2.74662
27.2409
34.9585
11.4171
3.16508
7.25807
6.62485
8.78869
2.87813
14.3539
9.43082
6.81889
3.54205
9.07683
3.94089
1.73544
4.10462
1.84994
3.69973
3.27632
21.3073
2.77551
7.65728
18.1557
12.9434
2.84517
10.0747
2.87449
3.56786
12.0965
2.89924
4.11245
3.82514
2.52053
11.426
4.88293
1.84902
4.58832
1.95008
16.3218
3.49931
4.55761
3.23626
11.8481
11.1469
11.984
12.3867
12.9002
13.4909
4.95828
15.0882
19.7576
7.06795
6.93573
14.7239
5.09006
2.40072
5.03461
9.39046
3.80982
2.1156
1.88765
2.9057
2.5383
10.1012
18.9043
2.00879
5.12465
10.9095
3.45505
2.43791
4.75577
6.60065
4.22353
3.3523
4.11857
3.84077
2.32926
5.5285
4.90385
2.49132
2.16437
8.26835
5.69232
3.32793
6.05573
2.22591
9.46117
4.8501
7.08927
3.37172
5.67644
6.39503
3.28218
2.76724
4.14965
2.50098
32.396
4.17774
3.22596
2.42731
2.25632
2.72345
6.78338
16.8335
2.83741
5.7676
6.9042
7.03474
7.70907
2.46845
20.2023
2.19852
2.92377
11.7396
8.75858
3.00939
3.0821
6.72624
40.4003
9.55409
3.40375
3.80664
1.69558
12.2467
35.6742
2.70632
9.342
2.84366
3.80071
3.75212
26.2975
2.12252
4.3856
3.42466
2.08751
3.5287
2.57389
6.29999
5.63541
4.35644
3.61887
8.02485
3.0332
7.25734
16.6262
5.0478
5.13217
5.47055
4.56438
17.9757
3.58786
9.82218
9.43618
13.5344
8.88114
3.37989
22.6745
2.56191
6.7559
7.87282
3.0456
6.64429
6.89128
3.1191
2.79353
6.23834
1.98701
8.7523
8.7451
8.76271
5.36373
2.88105
3.78535
3.33504
4.81411
3.06985
3.02745
3.19295
3.28219
12.3541
12.3715
2.78835
3.1386
4.58094
2.7747
40.77
3.96946
43.29
7.09077
2.73933
8.88471
10.3789
2.74431
5.7617
9.01576
2.24973
2.37281
4.11213
3.01793
6.93647
4.37161
13.1358
3.05754
31.2055
3.4211
16.1751
2.57411
20.4055
1.9097
2.07801
18.1435
7.88036
3.96279
5.76998
8.18624
7.02732
2.48361
3.42643
2.62031
12.7615
34.6171
2.50896
11.0571
2.08698
3.43411
4.70585
3.37315
2.19377
9.13918
6.75014
8.87916
3.23648
3.44789
15.1273
23.5629
9.21003
9.00344
3.3616
2.8707
8.5653
7.02809
1.90996
5.55045
3.20246
4.32494
3.74421
3.57179
18.0348
2.64495
4.01816
26.6338
13.3248
27.6835
4.92774
5.97934
16.4895
2.43573
9.08166
11.6289
8.96434
9.72562
3.42408
4.45375
4.16778
2.02387
18.9461
3.0892
3.35647
7.34093
9.85698
3.22776
9.28999
3.12702
1.65063
3.96238
3.3194
26.3775
3.23136
9.66457
25.2025
3.3223
11.358
6.99638
5.73688
18.8155
7.36758
3.38964
9.96077
11.5028
5.08699
4.42373
21.3586
3.36997
2.7072
2.30224
3.68921
2.74164
25.6707
12.2657
2.13171
1.97188
10.7462
18.6592
5.0254
6.07701
3.57441
2.98249
2.95047
7.8138
4.12923
4.67451
4.25239
3.83304
3.68884
3.62482
1.92791
10.6267
35.2938
12.7561
3.0864
6.15968
10.2525
2.5789
73.8976
17.223
3.6301
2.20782
2.58789
8.22931
3.07512
2.78784
4.17359
4.28822
2.98456
10.2911
6.22797
6.54683
8.89489
3.62352
15.4372
23.6126
4.84561
3.10548
9.10732
4.82954
2.09124
5.53693
4.98374
3.06661
4.17709
4.58033
13.3011
3.21424
9.13159
8.66275
8.70855
32.8458
5.19243
9.17872
2.35623
6.59622
5.52711
3.9449
5.20958
3.69769
12.5081
1.92618
3.29302
5.60781
3.68316
2.83476
6.37173
8.60195
4.15501
26.8246
2.16712
6.30141
6.4791
10.0113
7.98109
23.5651
5.92398
20.8734
16.7585
5.23037
9.58992
16.2779
17.1419
8.53118
9.30546
6.17492
14.759
7.90179
2.01392
4.17274
3.90053
3.7476
2.81081
37.9039
7.50575
22.704
10.3835
3.05874
4.31746
2.79935
7.27892
3.17633
2.41618
11.3385
8.9403
10.9074
2.78112
3.71726
7.52931
2.35268
6.67275
39.3682
4.48404
11.9839
2.72995
3.01586
16.0894
2.62334
9.12647
7.86995
1.67364
32.8793
10.0325
6.70002
12.1548
12.9257
8.295
11.637
4.18208
3.31539
9.6857
2.84492
9.15706
8.82961
4.77595
23.292
3.24206
6.23585
4.57674
6.85793
4.93341
2.95715
3.1274
6.52121
2.31187
3.73814
4.16959
8.95541
4.1258
3.09229
2.98445
7.75582
1.8841
4.11348
4.65857
3.3319
13.5065
4.56303
9.71428
2.02955
10.822
9.46195
3.86946
5.12162
4.48425
5.30402
3.66999
17.4706
2.02572
4.90954
2.91659
3.93512
3.34719
2.9344
10.4658
1.9466
3.46645
4.81771
5.80048
2.39661
3.37829
4.11635
2.35616
4.05432
1.63497
3.65888
3.62673
3.23733
13.9105
4.28577
4.55624
5.30874
6.44217
5.24089
14.6242
3.53533
1.77464
4.56252
9.21795
2.99871
2.68692
6.45628
16.1593
2.79014
4.46828
5.79331
3.44495
3.63784
2.3661
5.68952
24.0981
20.5763
1.81468
1.97267
3.52495
5.95951
4.94412
4.75981
3.80543
4.55728
10.9355
4.0073
2.2429
3.67023
25.5304
9.1652
27.9704
25.0177
3.48874
2.48573
7.32862
4.52589
4.12629
13.6195
2.57469
1.80485
2.27099
13.6971
1.84799
2.49629
3.75984
8.46371
3.96607
4.9353
6.15123
6.5785
5.57867
3.82494
6.90475
3.49549
3.98847
7.77149
9.34849
2.55451
2.47572
3.20232
4.56539
2.99096
2.80075
8.79423
1.98888
18.8476
2.18781
3.56572
6.62635
15.7778
4.28166
5.10251
4.63994
36.1745
2.95453
4.04144
14.3579
4.60401
4.62686
20.1295
2.59037
2.45865
7.91186
5.60664
5.86947
4.68287
4.17152
13.865
2.10978
15.2505
9.49765
6.03968
3.649
4.8401
3.11989
2.45849
2.96826
1.97573
2.82292
12.4108
5.74605
6.69462
4.94831
2.82291
4.23494
2.57053
1.8069
5.98951
16.5302
11.5951
5.05023
19.7596
4.39245
17.5776
9.84522
11.9985
2.53171
2.75896
17.8708
10.4019
3.31498
3.42974
3.06881
4.4811
2.6463
6.4141
2.87535
11.7566
2.99392
2.64473
14.228
5.38474
5.17947
4.21094
3.1236
6.97367
4.9856
3.13054
5.88033
3.05722
3.33387
2.5176
4.13635
10.9021
3.23339
5.8242
11.6213
3.07147
1.95588
4.44828
4.21403
2.01346
6.29758
7.77338
6.42554
7.38334
2.85223
11.3011
9.93257
4.13573
4.48977
4.30969
5.73066
2.67205
4.69416
5.71637
2.99768
5.05799
4.89705
4.44939
4.16503
15.4573
3.42674
5.28189
2.59386
15.4497
6.79245
24.1154
12.3983
5.55742
2.68744
3.37647
2.65522
6.08297
2.82238
2.69818
20.3867
4.10833
3.20702
6.51449
7.18454
2.63661
4.97442
6.01028
2.61623
37.8067
8.1045
4.82438
3.60668
15.9023
9.87557
5.52052
1.65868
2.43735
11.9426
3.94761
10.8731
4.23496
4.78576
4.71463
2.44167
8.17486
27.3018
27.2109
27.1567
27.5153
33.0932
32.2941
31.2605
30.9524
6.28853
4.08975
2.2137
3.86866
22.8299
10.582
3.39847
3.11266
6.67077
10.5386
4.24188
3.60688
3.08749
20.3729
5.83217
1.95319
20.8056
2.80217
24.0305
2.80086
4.75611
2.70913
9.49599
25.5318
1.64896
6.78486
10.3524
13.1333
3.98818
15.4598
6.28947
2.80946
4.47731
2.45844
2.93377
14.7309
3.33031
30.0982
11.9345
4.88668
4.79955
3.60129
10.8925
2.15435
3.69442
4.21875
2.39527
6.22515
27.8836
8.76104
6.19313
10.3969
2.59196
13.5189
5.47961
4.79662
3.97925
3.70294
10.1623
6.26059
4.48832
4.95674
4.25645
7.8196
25.0371
5.63392
6.33027
4.88953
2.33852
5.10446
6.87655
6.04822
57.7131
19.031
5.45214
6.01245
3.46467
2.08505
9.32395
14.9896
6.20893
3.83012
9.38203
3.99664
2.16544
2.10476
3.85919
2.94411
5.88586
5.54726
4.95334
3.41751
7.23019
3.73374
3.91319
3.78832
29.7787
13.0838
10.9014
10.0332
15.351
5.28121
6.27405
11.3397
2.0837
3.43052
2.24695
5.2181
3.44139
5.50445
2.53011
2.84424
7.48686
2.62988
4.58309
3.2342
5.14486