/*--------------------------------*- C++ -*----------------------------------*\
| =========                 |                                                 |
| \\      /  F ield         | OpenFOAM Extend Project: Open source CFD        |
|  \\    /   O peration     | Version:  1.6-ext                               |
|   \\  /    A nd           | Web:      www.extend-project.de                 |
|    \\/     M anipulation  |                                                 |
\*---------------------------------------------------------------------------*/
FoamFile
{
    version     2.0;
    format      ascii;
    class       volScalarField;
    location    "2000";
    object      p_rgh;
}
// * * * * * * * * * * * * * * * * * * * * * * * * * * * * * * * * * * * * * //

dimensions      [0 2 -2 0 0 0 0];

internalField   nonuniform List<scalar> 
26307
(
0.282803
0.155405
0.103408
0.0379522
0.125907
0.182633
0.0282766
0.227959
0.100613
0.265466
0.251236
0.173212
0.16228
0.0957871
0.0689506
0.12405
0.129428
0.0572914
0.0866995
0.157332
0.167958
0.275167
0.0580355
0.0358598
0.130698
0.171681
0.181756
0.0535793
0.182189
0.167967
0.11313
0.197771
0.0710374
0.17691
0.187092
0.261314
0.246002
0.0973462
0.133973
0.255028
0.0951477
0.0579469
0.16928
0.0798194
0.112879
0.0263945
0.146355
0.215207
0.249376
0.105308
0.122697
0.147873
0.169836
0.128346
0.0842141
0.133081
0.125775
0.0946382
0.206937
0.127428
0.0469937
0.0906414
0.0580095
0.0340711
0.15746
0.0638737
0.215512
0.127173
0.152364
0.252721
0.215783
0.128603
0.271457
0.0395294
0.036045
0.246432
0.169642
0.108312
0.168205
0.0643727
0.0734822
0.269235
0.000480751
0.222416
0.278882
0.21875
0.169069
0.151754
0.262373
0.0584095
0.279032
0.0853428
0.112572
0.121294
0.0509946
0.160572
0.117735
0.0893655
0.17622
0.151848
0.0467774
0.104854
0.269151
0.283287
0.152878
0.048556
0.0806807
0.156605
0.28312
0.133643
0.247936
0.0739951
0.135019
0.239103
0.0405648
0.0225114
0.0587852
0.10411
0.197493
0.281883
0.266836
0.127289
0.0921301
0.0969575
0.124865
0.124677
0.203111
0.0661619
0.0492181
0.111387
0.114516
0.0737939
0.249531
0.0917339
0.176957
0.162106
0.197861
0.271694
0.163043
0.17245
0.281167
0.172002
0.0757324
0.0889279
0.260662
0.199145
0.179847
0.17371
0.109283
0.132781
0.248111
-0.0101985
0.176507
0.257171
0.256919
0.177734
0.144092
-0.0427866
0.133108
0.132615
0.0834218
0.160591
0.133085
0.174566
0.28056
0.210532
0.173929
0.195826
0.106308
0.230737
0.263555
0.267035
0.255961
0.162822
0.0502493
0.152861
0.0759094
0.274875
0.265912
0.234987
-0.0516332
0.00331439
0.258877
0.121913
0.162788
0.131214
0.0883115
0.13172
0.0426325
0.17966
0.178
0.128299
0.0578804
0.272508
0.138528
0.266276
0.0558168
0.228619
0.101385
0.249828
-0.00169856
0.275632
0.084721
0.123949
0.149828
0.0309731
0.123983
0.0551733
0.174589
0.0893871
0.13739
0.161851
0.295235
0.119837
0.1586
0.228453
0.170992
0.172668
0.26125
0.059331
0.160644
0.138802
0.0825019
0.173314
0.139651
0.269592
0.034467
0.172788
0.247594
0.156034
0.168313
0.13386
0.0330009
0.0860519
0.268974
0.178187
0.263957
0.131555
0.12402
0.125771
0.0399641
0.101111
0.141941
0.168056
0.162818
0.156746
0.167303
0.199857
0.161677
0.168071
0.207035
0.269187
0.0729998
0.0864102
0.117595
0.0773632
0.0958235
0.12622
0.0344958
0.172843
0.26643
0.0775887
0.119103
0.12346
0.265783
0.10092
0.0706924
0.200771
0.264632
0.154387
0.200804
0.233715
0.21507
0.0353571
0.264957
0.0902718
0.184716
0.0876045
0.128836
0.108319
0.172806
0.18002
0.158305
0.103246
-0.00430611
0.169278
0.0753497
0.103014
0.0868421
0.197001
0.104817
0.0807279
0.27463
0.185114
0.184738
0.172078
0.173062
0.173759
0.187797
0.0796704
0.17371
0.0970861
0.181479
0.18404
0.101855
0.11507
0.0970021
0.129637
0.228015
0.0698997
0.256453
0.0839307
0.233921
0.139294
0.120837
0.0624811
0.030381
0.145343
0.261284
0.0913288
0.126415
0.172465
0.0936595
0.168222
0.119118
0.0864124
0.121807
0.209022
0.234799
0.159458
0.261411
0.139765
0.0505183
0.187683
0.166031
0.115495
0.28103
0.155337
0.261535
0.165665
0.0407932
0.037384
0.275004
0.266141
0.103703
0.18505
0.167438
0.253815
0.177985
0.174645
0.189828
0.0626479
0.0349818
0.143739
0.176792
0.184564
0.167075
0.0557745
0.0326175
0.183956
0.174096
0.294636
0.170923
0.0434507
0.0912798
0.117081
0.251535
0.174016
0.15123
0.182702
0.18006
0.188118
0.151032
0.175475
0.169165
0.269852
0.268608
0.242778
0.166698
0.105421
0.236504
0.266412
0.0554653
0.0319358
0.0540061
0.205031
0.217808
0.257746
0.182984
0.273623
0.172872
0.190054
0.0891382
0.059953
0.209105
0.256165
0.0690974
0.0846975
0.123805
0.100793
0.0445773
0.0752345
0.140776
0.100708
0.263293
0.168257
0.164415
0.055715
0.187676
0.039557
0.101975
0.0324723
0.275934
0.191062
0.0949363
0.176172
0.121021
0.053832
0.0383994
0.159122
0.0582788
0.120427
0.123906
0.0577775
0.194522
0.254918
-0.0218357
0.104775
0.275942
0.0973029
0.269359
0.276436
0.161129
0.224309
0.0880005
0.254448
0.122846
0.176394
0.189512
0.192331
0.124483
0.184262
0.101858
0.156218
0.265583
0.0201658
0.179317
0.277754
0.134992
0.269122
0.192618
0.113148
0.176264
0.115762
0.277939
0.159162
0.163713
0.137185
0.161207
0.0704477
0.128694
0.0596025
0.13364
0.166461
0.180266
0.26009
0.127945
0.036102
0.0594947
0.138593
0.264155
0.176055
0.187945
0.182199
0.185156
0.176478
0.140589
0.134063
0.0139665
0.12518
0.178576
0.157165
0.0361968
0.130959
0.119502
0.125112
0.190505
0.107425
0.19813
0.097918
0.158961
0.169136
0.14989
-0.0213745
0.136071
0.177951
0.181674
0.281455
0.0586881
0.106455
0.277556
0.16444
0.166509
0.044088
0.234057
0.223054
0.275032
0.143387
0.165665
0.175153
0.0783078
0.0562797
0.118654
0.112283
0.183121
0.142565
0.114812
0.170459
0.172919
0.178724
0.088413
0.179784
0.168983
0.0375749
0.152674
0.127182
0.0536179
0.182875
0.251054
0.0672896
0.151717
0.185576
0.175162
0.131294
0.108438
0.189194
0.0588762
0.150497
0.158458
0.0942088
0.165643
0.191043
-0.010377
0.179132
0.108852
0.215085
0.0176285
0.151171
0.0647123
0.158086
0.0891605
0.237519
0.0937058
0.157328
0.0391311
0.159392
0.16339
0.184914
0.189866
0.0893384
0.146218
0.168699
0.237427
0.0762473
0.0887041
0.214027
0.054136
0.151947
0.128874
0.163248
0.119728
0.125072
0.145226
0.102821
0.0703337
0.0437501
0.0701142
0.241095
0.188084
0.0839246
0.164745
0.17397
0.055896
0.0659417
0.0920392
0.188332
0.182028
0.256367
0.0703444
0.131731
0.0963095
0.160978
0.0839982
0.0553973
0.107161
0.26437
0.236874
0.167875
0.107002
0.0911212
0.160597
0.26105
0.160612
0.0577583
0.284949
0.0370694
0.0977081
-0.0151333
0.100277
0.093373
0.0370275
0.0571465
0.168559
0.126846
0.232509
0.165175
0.195299
0.268178
0.138661
0.104488
0.200543
0.215686
0.0354163
0.259345
0.163789
0.282272
0.231296
0.167344
0.0956075
0.130428
0.175136
0.182142
0.0664218
0.164517
0.182397
0.0695314
0.267649
0.154765
0.142328
0.142978
0.265461
0.131003
0.241159
0.104581
0.159717
0.186053
0.208997
0.266987
0.161039
0.0964114
0.265584
0.163223
0.0986735
0.0326476
0.15697
0.165299
0.272616
0.0778786
0.10572
0.0516728
0.281656
0.0656595
0.26869
0.0500532
0.163875
0.17929
0.0292107
0.111376
0.0902345
0.272189
0.128903
0.0515737
0.0423763
0.0906617
0.182973
0.0424336
0.180584
0.180204
0.146719
0.0383651
0.169534
0.159709
0.0937275
0.0803331
0.162727
0.152252
0.0830394
0.130934
0.18879
0.168825
0.0943951
0.0715684
0.185026
0.0963268
0.131735
0.145721
0.0652753
0.0472504
0.140305
0.130909
0.175965
0.0651846
0.16216
0.0924475
0.0405954
0.143935
0.177229
0.239343
0.179475
0.167805
0.158803
0.178596
0.180081
0.139975
0.141141
0.167517
0.148313
0.189143
0.166032
0.117103
0.246358
0.107748
0.189472
0.156489
0.181737
0.117271
0.127327
0.171395
0.160309
0.0483183
0.0989122
0.0686074
0.158589
0.190109
0.276157
0.101219
0.172061
0.125575
0.173395
0.142676
0.198892
0.117891
0.189516
0.110677
0.184188
0.159807
0.175158
0.123335
0.165104
0.125956
0.0345152
-0.0183252
0.140768
0.161396
0.243056
0.147948
0.170853
0.125665
0.161831
0.0360693
0.16619
0.191386
0.00556706
0.0814461
0.0515802
0.090733
0.164186
0.128551
0.264794
0.219929
0.164004
0.162601
0.1295
0.173553
0.14297
0.129841
0.0573625
0.129513
0.12335
0.249206
0.0906476
0.105462
0.0560133
0.16122
0.0728365
0.136844
0.123151
0.118395
0.196902
0.16885
0.0958515
0.0413678
0.159676
0.0927328
0.169296
0.123539
0.129133
0.162807
0.137401
0.0941623
0.287979
0.240397
0.154235
0.252526
0.205184
0.138548
0.162314
0.0566623
0.1279
0.0932325
0.0333777
0.131408
0.185697
0.242119
0.186904
0.17511
0.159028
0.270497
0.176099
0.113953
0.183758
0.171483
0.145106
0.112559
0.0846329
0.286187
0.0958422
0.0822118
0.0858928
0.151012
0.110923
0.156437
0.179291
0.169461
0.258093
0.139886
0.0785046
0.174123
0.161057
0.121722
0.0663569
0.268269
0.212873
0.0392569
0.162871
0.246358
0.224301
0.10611
0.177876
0.186049
0.0426426
0.163126
0.161538
0.279513
0.133283
0.25139
0.270562
0.12488
0.114069
0.054704
0.0495273
0.139261
0.259428
0.0220802
0.0639715
0.250734
0.231015
0.0421813
0.186837
0.103066
0.070938
0.0508117
0.110958
0.085383
0.116617
0.117695
0.0884402
0.126603
0.270125
0.185907
0.0285899
0.176393
0.124771
0.167587
0.263715
0.256241
0.169844
0.153544
0.0603236
0.0884803
0.169179
0.0462309
0.162479
0.08147
0.111028
0.254217
0.269369
0.132805
0.243526
-0.00108571
0.256166
0.15825
0.0409076
0.271478
0.164121
0.0887308
0.105649
0.149925
0.0417128
0.191885
0.0574383
0.044406
0.127642
0.142285
0.050037
0.102866
0.0422667
0.105971
0.231306
0.160578
0.101642
0.270766
0.125657
0.0339109
0.214213
0.168739
0.264254
0.0848597
0.160001
0.0468837
0.13093
0.163788
0.214673
0.177859
0.188229
0.172971
0.0613996
0.106983
0.104204
0.251345
0.159882
0.283821
0.124848
0.11201
0.124488
0.13683
0.168176
0.10059
0.0804627
0.167397
0.160408
0.0785727
0.183657
0.171509
0.187146
0.277045
0.12356
0.242478
0.104009
0.212701
0.0903516
0.162109
0.257728
0.276213
0.255063
0.165808
0.263916
0.137515
0.295947
0.125831
0.0137919
0.120316
0.164445
0.109091
0.164616
0.127767
0.0981183
0.0803016
0.0869761
0.0726465
0.119215
0.183026
0.174649
0.174215
0.128113
0.132607
0.0468386
0.0541365
0.270338
0.129423
0.186765
0.156417
0.182542
0.263111
0.123259
0.273616
0.236616
0.131819
0.160794
0.18705
0.162527
0.273477
0.257057
0.116023
0.15989
0.0441212
0.133789
0.176879
0.0696604
0.0968807
0.0985819
0.184756
0.190576
0.153144
0.0854477
0.0574846
0.0482218
0.00304645
0.0670801
0.105242
0.110353
0.077177
0.129648
0.157904
0.267392
0.129516
0.0737826
0.17626
0.174352
0.171667
0.263157
0.0925013
0.154273
0.257026
0.0721351
0.0658595
0.170695
0.0342616
0.183494
0.131111
0.160478
0.158792
0.105391
0.1061
0.104607
0.17583
0.0938485
0.171113
0.178213
0.10881
0.105625
0.150483
0.131578
0.190265
0.272838
0.266331
0.162386
0.159747
0.165772
0.246445
0.029913
0.266441
0.106422
0.175136
0.129266
0.20387
0.105459
0.178461
0.194778
0.0727109
0.16813
0.160547
0.271929
0.168594
0.134275
0.0993857
0.189018
0.0350052
0.144045
0.0443199
0.261132
0.0661004
0.110987
0.061311
0.177325
0.152868
0.151835
0.0386259
0.0620055
0.0857399
0.127859
0.165608
0.220078
0.107873
0.160525
0.164882
0.183764
0.131232
0.121662
0.210975
0.16147
0.224772
0.189085
0.049101
0.294395
0.16435
0.137905
0.107045
0.118521
0.16663
0.1821
0.0805016
0.17165
0.268077
0.290291
0.252053
0.169959
0.179231
0.101712
0.0756364
0.0816934
0.116779
0.168844
0.171297
0.156706
0.177981
0.177655
0.185369
0.17718
0.0990432
0.173673
0.039208
0.0617284
0.173212
0.0831038
0.221106
0.127049
0.120272
0.131532
0.0831488
0.0785487
0.198397
0.063975
0.177257
0.160825
0.123178
0.141337
0.0575006
0.139653
0.154741
0.0592263
0.162238
0.174835
0.100917
0.160795
0.15423
0.158298
0.1126
0.157845
0.14607
0.174598
0.122186
0.153018
0.210939
0.0935403
0.123978
0.159444
0.177354
0.236001
0.160045
0.267104
0.184525
0.106684
0.258986
0.113358
0.108601
0.271093
0.161931
0.0375264
0.147782
0.129675
0.285279
0.103566
0.159892
0.162954
0.175667
0.157732
0.270442
0.125668
0.184943
0.190936
0.260592
0.182954
0.106726
0.192921
0.039831
0.0463884
0.0599514
0.161059
0.177835
0.133316
0.0756905
0.164504
0.184651
0.189748
0.292476
0.183163
0.180484
0.161169
0.245212
0.174927
0.268727
0.0580956
0.0393936
0.16158
0.166465
0.169236
0.0761384
0.0918854
0.124405
0.082141
0.0946747
0.123745
0.0612299
0.128824
0.0967262
0.0497195
0.0611578
0.213287
0.175361
0.27347
0.157025
0.0674405
0.104039
0.0370702
0.114673
0.0828945
0.271042
0.158238
0.100743
0.160101
0.17861
0.17458
0.216717
0.1042
0.0422235
0.157951
0.268061
0.108264
0.267953
0.120401
0.143737
0.140722
0.178922
0.0357818
0.15416
0.173012
0.0594327
0.161874
0.24833
0.0956966
0.259023
0.15892
0.0998378
0.0238073
0.126593
0.169079
0.0574117
0.130038
0.159569
0.0589882
0.170246
0.152919
0.253437
0.100598
0.109469
0.00768389
0.143567
0.133379
0.108006
0.0835821
0.0448031
0.169975
0.254674
0.190929
0.1917
0.103826
0.153414
0.110914
0.180705
0.190967
0.169789
0.0817315
0.163619
0.268093
0.159837
0.157702
0.114163
0.177071
0.188316
0.16291
0.178107
0.182316
0.172675
0.240265
0.281503
0.0930977
0.160142
0.175312
0.134131
0.138174
0.166987
0.224406
0.108602
0.0274087
0.0957542
0.175929
0.056564
0.124629
0.0956975
0.132693
0.101305
0.174954
0.138911
0.0825721
0.1128
0.146886
0.180118
0.285158
0.171226
0.191296
0.110879
0.0427394
0.0714185
0.126334
0.169388
0.179174
0.0994906
0.118945
0.137345
0.11351
0.136766
0.171073
0.162751
0.133564
0.162686
0.0721727
0.178043
0.157087
0.039881
0.0436175
0.18446
0.214969
0.175844
0.268706
0.261836
0.112873
0.280019
0.128802
0.23921
0.0477507
0.112199
0.15645
0.133725
0.18538
0.190832
0.134282
0.108325
0.179072
0.13013
0.0659554
0.101563
0.265896
0.107659
0.271292
0.247336
0.157021
0.224396
0.171072
0.101763
0.161763
0.266036
0.0883349
0.159574
0.267696
0.166608
0.11776
0.153284
0.13888
0.181166
0.114874
0.131481
0.122279
0.105081
0.104392
0.130553
0.180688
0.143917
0.0589346
0.188243
0.118049
0.111471
0.194261
0.103825
0.0249484
0.0710085
0.075648
0.0807245
0.122909
0.126177
0.0703898
0.144597
0.16617
-0.0620717
0.157512
0.173699
0.0628811
0.10421
0.115662
0.103374
0.139279
0.265821
0.203424
0.256858
0.0962209
0.248151
0.161426
0.162445
0.0655373
0.143498
0.279401
0.093416
0.122121
0.17181
0.152444
0.105749
0.163957
0.054287
0.171888
0.165874
0.181844
0.156964
0.28609
0.0971825
0.157629
0.100395
0.0585291
0.156617
0.140121
0.178202
0.147051
0.22426
0.220866
0.0907662
0.185306
0.0389188
0.05776
0.156563
0.130773
0.0392186
0.275832
0.242234
0.17369
0.0505949
0.0609874
0.119398
0.275007
0.259446
0.131944
0.119343
0.092375
0.0954407
-0.00584237
0.126092
0.257848
0.133435
0.0895041
0.161272
0.14052
0.158886
0.101384
0.0949124
0.0576282
0.0387492
0.0155006
0.166844
0.176996
0.103858
0.173096
0.170374
0.183379
0.269424
0.269456
0.168354
0.131797
0.0168251
0.171111
0.0754002
0.210394
0.179678
0.186548
0.124779
0.171477
0.110093
0.168514
0.0974462
0.0911298
0.146109
0.127221
0.143665
0.265756
0.132513
0.169263
0.0651822
0.157767
0.0361538
0.145864
0.178824
0.259052
0.056791
0.271743
0.168711
0.127193
0.113386
0.137815
0.158165
0.154981
0.122786
0.1101
0.084586
0.173621
0.141497
0.185029
0.0941862
0.231442
0.269013
0.169786
0.183254
0.257815
0.269771
0.220139
0.0386675
0.282948
0.232315
0.107171
0.132076
0.279529
0.122222
0.0763955
0.179295
0.263425
0.0424056
0.131971
0.172263
0.263003
0.0365321
0.169635
0.0999387
0.194058
0.0905276
0.0515694
0.26954
0.109047
0.240124
0.265576
-0.0119688
0.132113
0.16166
0.118875
0.110609
0.170878
0.169117
0.273236
0.138306
0.0390835
0.0597527
0.10732
0.0656713
0.137325
0.10312
0.0653455
0.10838
0.095765
0.0804974
0.184361
0.190662
0.020816
0.0317788
0.228562
0.158175
0.201231
0.171375
0.119283
0.120815
0.156645
0.142856
0.158431
0.110939
0.145818
0.092599
0.27216
0.245016
0.161439
0.234992
0.154073
0.174556
0.158992
0.111819
0.17496
0.16889
0.123583
0.255933
0.169411
0.125473
0.0561239
0.291997
0.170042
0.157167
0.152608
0.192662
0.153159
0.122912
0.131785
0.185241
0.189772
0.0858924
0.0634208
0.0937898
0.146599
0.0947293
0.180657
0.227143
0.0926093
0.169236
0.166767
0.279528
0.146012
0.10618
0.161839
0.249697
0.188419
0.184233
0.167848
0.134814
0.12736
0.0970922
0.115149
0.148746
0.028778
0.259463
0.0750219
0.254079
0.153399
0.148529
0.0293052
0.0344985
0.183964
0.164536
0.128549
0.267976
0.267151
0.138004
0.230794
0.158928
0.133155
0.169593
0.0569324
0.0417174
0.267726
0.0785234
0.191758
0.159321
-0.101731
0.151808
0.158255
0.184705
0.190266
0.0795437
0.0824104
0.171266
0.11847
0.170231
0.123233
0.0615832
0.237747
0.215312
0.0349929
0.262378
0.0397021
0.168988
0.157032
0.222656
0.137493
0.185378
0.190404
0.0720676
0.108204
0.0613204
0.130861
0.0274484
0.0717644
0.17664
0.167154
0.122156
0.262655
0.0664265
0.064378
0.0635501
0.18501
0.109835
0.269286
0.158596
0.0516134
0.276826
0.141261
0.26528
0.164956
0.0738057
0.0630668
0.143681
0.130283
0.162881
0.175004
0.16159
0.0541651
0.132473
0.168605
0.106717
0.174313
0.0714249
0.0617023
0.18882
0.0578823
0.262707
0.130992
0.183469
0.190059
0.0409297
0.0651576
0.0313262
0.150321
0.263475
0.0927789
0.190753
0.1594
0.0608176
0.0766586
0.125714
0.265943
0.0394025
0.0592188
0.0317634
0.123512
0.232823
0.222478
0.111039
0.117505
0.0777242
0.0567422
0.097142
0.0916811
0.0338267
0.0545165
0.179362
0.273821
0.269303
0.18804
0.0652569
0.103253
0.139981
0.143604
0.166694
0.0621876
0.073667
0.142527
0.126717
0.107005
0.194641
-0.0410432
0.0951894
0.0890363
0.13511
0.151335
0.27615
0.186855
0.14972
0.105443
0.153906
0.025818
0.158891
0.265858
0.165124
0.211126
0.0606573
0.103264
0.161791
0.125597
0.149145
0.26909
0.161602
0.122186
0.12047
0.15801
0.189605
0.266901
0.0870209
0.118654
0.196823
0.108005
0.053337
0.0976477
0.100697
0.0307233
0.114752
0.123232
0.265876
0.157945
0.280564
0.165181
0.0604208
-0.0322556
0.0584027
0.158349
0.0928988
0.269039
0.201658
0.104082
0.11389
0.136715
0.148253
0.0710706
0.135562
0.278287
0.0949204
0.125841
0.021996
0.0860244
0.115051
0.114351
0.0852529
0.0688003
0.148681
0.161286
0.0576534
0.16344
0.093231
0.047887
0.0603118
0.0351155
0.189048
0.156784
0.130696
0.163941
0.257956
0.128252
0.231962
0.0670648
0.25762
0.152372
0.113839
0.183432
0.184114
0.190487
0.117298
0.127839
0.117908
0.0656648
0.0832862
0.082673
0.100798
0.129448
0.137771
0.194253
0.0705935
0.187812
0.269616
-0.0940215
0.171653
0.10112
0.113081
0.160057
0.117466
0.187354
0.275381
0.139415
0.0646698
0.0920305
0.109272
0.162829
0.171623
0.116641
0.288026
0.159894
0.234507
0.2022
0.0420208
0.150352
0.103102
0.123623
0.280118
-0.0120351
0.258252
0.122697
0.177573
0.286979
0.272276
0.144966
0.0360782
0.159292
0.172647
0.182468
0.0755865
0.0779001
0.0470318
0.0921179
0.0984593
0.064125
0.156804
0.0736737
0.0752898
0.273634
0.140711
0.188185
0.0311356
0.276998
0.286428
0.171876
0.27009
0.0679491
0.261458
0.211073
0.0639442
0.0383665
0.134655
0.160128
0.0670658
0.150065
0.156858
0.105878
0.167787
0.13162
0.266828
0.133263
0.14015
0.169086
0.124844
0.0107506
0.166672
0.223344
0.0486584
0.165734
0.129496
0.109867
0.168288
0.12742
0.0726931
0.183566
0.275586
0.185004
0.185846
0.159307
0.133161
0.0953852
0.113934
0.0842971
0.173979
0.0892979
0.106516
0.150275
0.189286
0.182749
0.187326
0.117874
0.132418
0.13882
0.0649066
0.0229723
0.137717
0.167541
0.125242
0.269252
0.166546
0.092119
0.15331
0.169163
0.0634823
0.16682
0.123556
0.078932
0.134149
0.270998
0.203837
0.265067
0.269895
0.129335
0.162668
0.167477
0.184992
0.191025
0.0298574
0.106635
0.281744
0.269084
0.104037
0.0596633
0.105569
0.0786243
0.17215
0.115393
0.0930007
0.171085
0.087963
0.253378
0.255763
0.185943
0.157523
0.047188
0.059983
0.0941521
0.240466
0.106622
0.0736171
0.119211
0.161148
0.0404055
0.100996
0.216342
0.268996
0.150848
0.268774
0.0585505
0.136839
0.281419
0.0674348
0.0740423
0.156574
0.27076
0.267622
0.164122
-0.00527649
0.172821
0.263831
0.104991
0.265116
0.125831
0.196153
0.142161
0.168914
0.0911181
0.287229
0.156518
0.0716402
0.162386
0.13185
0.124986
0.13197
0.0604205
0.162911
0.187242
0.0581684
0.232505
0.184612
0.181232
0.154953
0.124437
0.263257
0.0409147
0.1586
0.147423
0.168731
0.279097
0.125892
0.173481
0.282801
0.171808
0.154768
0.28319
0.163667
0.160362
0.11945
0.113679
0.174757
0.0461907
0.0745068
0.152576
0.0577154
0.143243
0.140164
0.0892864
0.106557
0.142562
0.153474
0.117533
0.106972
0.089789
0.185486
0.169414
0.130494
0.0672102
0.150297
0.065992
0.135075
0.260391
0.0817203
0.253328
0.141787
0.105946
0.075642
0.133674
0.0616619
0.2858
0.126115
0.105568
0.167199
0.209089
0.135723
0.0769548
0.00568752
0.0956433
0.159931
0.0731273
0.127067
0.125677
0.0923615
0.097711
0.0390151
0.169678
0.136472
0.168786
0.104075
0.146745
0.150359
0.26237
0.174592
0.278235
0.256176
0.183745
0.189525
0.165104
0.158406
0.0839047
0.0447165
0.186616
0.191084
0.185306
0.123706
0.135961
0.139442
0.0281372
0.16682
0.178672
0.0997499
0.0413068
0.161718
0.167746
0.268278
0.0177018
0.180242
0.173293
0.291188
0.102081
0.045834
0.298949
0.0573517
0.163229
0.121778
0.0580727
0.0598684
0.16848
0.0410844
0.270575
0.0674826
0.19049
0.160846
0.186382
0.258692
0.0262734
0.159715
0.158859
0.0458138
0.130622
0.129496
0.102146
0.0928651
0.0423163
0.0709285
0.277699
0.116365
0.122263
0.0994319
0.0344208
0.26859
0.144913
0.160903
0.116818
0.283088
0.0763562
0.169453
0.162931
0.237969
0.149195
0.277246
0.159967
0.161454
0.186144
0.0985627
0.0355918
0.161415
0.139421
0.275498
0.269002
0.137976
0.067443
0.153179
0.178733
0.157309
0.184335
0.149594
0.036411
0.0972717
0.136585
0.133825
0.116947
0.265459
0.136859
0.270964
0.123053
0.0960032
0.169679
0.155649
0.137566
0.0573878
0.0649291
0.133578
0.093883
0.208811
0.172336
0.114276
0.236372
0.176854
0.200122
0.104847
0.0641006
0.217931
0.205868
0.219331
0.158886
0.26948
0.157733
0.0401225
0.155367
0.147068
0.222122
0.122523
0.0302109
0.174897
0.265711
0.0582063
0.05806
0.0373158
0.155573
0.167003
0.160172
0.100286
0.185185
0.180685
0.156534
0.0835464
0.170631
0.161347
0.0543501
0.0977552
0.0989969
0.0631901
0.0478845
0.0923385
0.143022
0.159377
0.22514
0.0734662
0.271384
0.0673459
0.159499
0.00853428
0.0371068
0.0641386
0.165051
0.154754
0.2749
0.162405
0.102882
0.224199
0.0641181
0.174588
0.261514
0.161287
0.11614
0.0984981
0.121259
0.189524
0.180311
0.163022
0.191387
0.281732
0.0914393
0.173919
0.156729
0.157404
0.262153
0.264683
0.0732688
0.0734603
0.188787
0.112934
0.288022
0.139167
0.118026
0.117465
0.0892299
0.0871545
0.108254
0.260692
0.167331
0.101877
0.109447
0.0680111
0.0478326
0.192989
0.259322
0.0770149
0.268949
0.165976
0.148186
0.100574
0.100978
0.252792
0.167368
0.179312
0.174634
0.152524
0.270724
0.102577
0.0439165
0.225779
0.180142
0.0638377
0.167437
0.171523
-0.00450973
0.178804
0.277259
0.156966
0.132432
0.125525
0.158003
0.263236
0.187589
0.248833
0.265757
0.1402
0.185696
0.191148
0.115448
0.158878
0.150524
0.0720691
0.283393
0.0684512
0.164298
0.0566545
0.0775745
0.0624691
0.271235
0.167571
0.255846
0.131451
0.159036
0.168125
0.176094
0.185168
0.268576
0.260193
0.0365694
0.165758
0.252193
0.0472417
0.0733308
0.0935398
0.156876
0.163013
0.201011
0.0721206
0.0658114
0.284324
0.0293431
0.16108
0.0515608
0.153742
0.259389
0.161643
0.189984
0.167323
0.284209
0.15411
0.127545
0.124387
0.105597
0.0579894
0.0393408
-0.037689
0.0660727
0.221594
0.167649
0.267662
0.169546
0.0888395
0.0803772
0.0897326
0.168089
0.148474
0.216893
0.037428
0.0556418
-0.00365027
0.171303
0.16828
0.253948
0.148211
0.272084
0.130587
0.181674
0.177332
0.171793
0.184353
0.115499
0.269258
0.125689
0.149427
0.131949
0.283781
0.0677188
0.187092
0.119502
0.117162
0.0628962
0.082679
0.0295888
0.0375203
0.182403
0.105463
0.232183
0.159209
0.0926278
0.257119
0.13017
0.0650321
0.135047
0.0212954
0.172655
0.0733752
0.175798
0.154729
0.15677
0.0965152
0.158432
0.177007
0.114266
0.168691
0.137941
0.138162
0.281714
0.0863884
0.103478
0.131181
0.130037
0.0587674
0.168054
0.0382888
0.177393
0.156366
0.0440099
0.138882
0.108861
0.17274
0.0423038
0.171907
0.0363922
0.0103931
0.266862
0.110172
0.204073
0.0376407
0.236908
0.16182
0.171584
0.113347
0.119176
0.0607379
0.0813506
0.0896838
0.0990392
0.127193
0.127935
0.163835
0.118374
0.131506
0.154527
0.0572143
0.274883
0.115509
0.0882367
0.033273
0.156424
0.172671
0.166893
0.0729054
0.122893
0.170078
0.0477546
0.124577
0.137821
0.283973
0.0106719
0.0369974
0.173604
0.10556
0.0918264
0.18391
0.141375
0.102374
0.135443
0.0632144
0.136022
0.102936
0.169738
0.179664
0.107419
0.0767447
0.126723
0.121383
0.0782503
0.0555477
0.119301
0.105766
0.113135
0.0960823
0.101806
0.157284
0.169225
0.170387
0.259197
0.216364
0.270923
0.150476
0.272153
0.0607024
0.124539
0.159113
0.155618
0.140691
0.15657
0.119674
0.0904812
0.0793535
0.0886389
0.121216
0.0700386
0.125262
0.236048
0.138607
0.159208
0.102957
0.174875
0.189524
0.140022
0.251418
0.102251
0.194114
0.252951
0.120416
0.087218
0.0717697
0.0839723
0.10056
0.129411
0.16989
0.167213
0.0540459
0.127815
0.12055
0.154792
0.19541
0.271683
0.15808
0.157027
0.102353
0.182718
0.0596534
0.16331
0.170234
0.140371
0.0941042
0.192236
0.0659879
0.1799
0.168425
0.215685
0.235636
0.164208
0.16775
0.167853
0.164102
0.0412726
0.176452
0.0699272
0.117183
0.110603
0.189637
0.175346
0.252479
0.154703
0.276319
0.255246
0.26921
0.0437244
0.29242
0.181654
0.165079
0.127697
0.273356
0.107132
0.163128
0.207485
0.201132
0.139653
0.286512
0.200977
0.120907
0.0415503
0.0937422
0.246323
0.273283
0.178432
0.0285296
0.190049
0.173739
0.104331
-0.00734167
0.0935827
0.123427
0.132735
0.106111
0.13232
0.183298
0.191858
0.215638
0.0699603
0.1012
0.124595
0.129133
0.159674
0.160055
0.058075
0.219447
0.19195
0.0622692
0.145339
0.28999
0.0555355
0.0972391
0.0766303
0.109003
0.0679315
0.259866
0.164271
0.0583754
0.16689
0.171085
0.121157
0.116219
0.0604475
0.0820736
0.0423575
0.066052
0.0950562
0.267163
0.119368
0.0545983
0.18902
0.288282
0.0945538
0.11543
0.282417
0.239387
0.173349
0.225279
0.269849
0.171411
0.272552
0.00797524
0.162368
0.00649767
0.177405
0.0447819
0.268869
0.130183
0.154882
0.108846
0.292748
0.264764
0.0495539
0.0568312
0.0581095
0.265393
0.044865
0.152743
0.0376435
0.174391
0.251893
0.174976
0.268928
0.173157
0.166248
0.192992
0.184649
0.190845
0.159142
0.256081
0.134803
0.245234
0.0888877
0.270047
0.265255
0.273995
0.0609157
0.235859
0.107514
0.244053
0.0524388
0.181593
0.186223
0.0547567
0.0685392
0.281456
0.188248
0.261339
0.25331
0.0468105
0.168621
0.0666921
0.0223211
0.164303
0.261104
0.269002
0.0996938
0.156758
0.104167
0.266719
0.093047
0.171296
0.131675
0.125667
0.159709
0.109072
0.0748968
0.130912
0.154966
0.169233
0.0594352
0.0352023
0.168051
0.126634
0.055408
0.00991863
0.170032
0.160614
0.0612374
0.0862465
0.0870266
0.160508
0.0721773
0.0504328
0.10535
0.112422
0.227553
0.0851971
0.0877169
0.09508
0.188114
0.117669
0.0714882
0.233813
-0.0102326
0.180135
0.138061
0.0790168
0.0923641
0.12317
0.174616
0.249997
0.166669
0.186154
0.16836
0.285145
0.108041
0.180263
0.0257367
0.184386
0.180099
0.156515
0.179592
0.269321
0.0605142
0.2685
0.0738525
0.017932
0.0625272
0.141494
0.129057
0.107263
0.0583174
0.247906
0.163373
0.155833
0.171483
0.223953
0.155763
0.173713
0.188053
0.204146
0.0595533
0.136102
0.117333
0.0447209
0.121323
0.186268
0.0353831
0.0537472
0.127953
0.202384
0.12082
0.0569588
0.0603258
0.0475579
0.0213431
0.23385
0.15905
0.139696
0.272967
0.198793
0.0523172
0.155264
0.127511
0.121619
0.151373
0.113294
0.0388475
0.0992176
0.19172
0.126021
0.175753
0.138911
0.0384256
0.16347
0.0385436
0.187845
0.0797362
0.159848
0.134064
0.151038
0.16923
0.163899
0.278839
0.200468
0.159678
0.0634866
0.0829686
0.170191
0.273485
0.0935072
0.0974448
0.131905
0.177564
0.0576679
0.180942
0.188357
0.166697
0.18379
0.0631547
0.105282
0.264469
0.158221
0.185273
0.118254
0.16851
0.144793
0.0816561
0.0698814
0.111093
0.0658108
0.0869287
0.119428
0.246358
0.0588952
0.0962201
0.197598
0.055027
0.014343
0.0627811
0.171717
0.109691
0.177243
0.268183
0.0376044
0.073953
0.16705
0.139939
0.183072
0.174008
0.146906
0.0323963
0.0940713
0.0574642
0.158693
0.160305
0.231721
0.26596
0.061579
0.181984
0.189143
0.125535
0.162039
0.183128
0.162801
0.153844
0.186909
0.0289846
0.28713
0.289967
0.157634
0.192813
0.26422
0.0165184
0.277943
0.166458
0.228636
0.16374
0.0860712
0.0931704
0.099122
0.0945935
0.113727
0.0887744
0.157578
0.117217
0.13352
0.201513
0.219374
0.104254
0.18948
0.126254
0.156661
0.157568
0.0370526
0.0956541
0.170461
0.174082
0.0258613
0.187684
0.0615667
0.27201
0.167371
0.226475
0.17951
0.16749
0.264963
0.158146
0.10226
-0.0314832
0.0850696
0.155276
0.17013
0.0572771
0.268697
-0.00423463
0.15837
0.16054
0.28418
0.155648
0.170371
0.155461
0.106766
0.127479
0.129268
0.0892146
0.290572
0.0396477
0.183449
0.0970697
0.115628
0.0939922
0.124734
0.0785667
0.111053
0.157923
0.199033
0.169509
0.217592
0.189279
0.171525
0.105854
0.124897
0.183686
0.170672
0.161403
0.181475
0.196919
0.173502
0.169718
0.197957
0.118848
0.0615884
0.161883
0.191463
0.131815
0.0659543
0.269121
0.167046
0.166675
0.161582
0.138099
0.269862
0.162969
0.141548
0.261955
0.123989
0.175696
0.129191
0.115225
-0.0747861
0.0460833
-0.029862
0.0466895
0.129116
0.164575
0.113902
0.108196
0.104052
0.191187
0.130336
0.0700453
0.158282
0.280223
0.134697
0.0488764
0.0541265
0.136145
0.192013
0.176905
0.0461486
0.163941
0.273756
0.167989
0.167735
0.135581
0.0861378
0.277591
0.244416
0.187918
0.193564
0.157323
0.176927
0.171672
0.245963
0.0913276
0.158144
0.0493785
0.0730261
0.0346695
0.0488336
0.180217
0.145612
0.077691
0.114424
0.0473227
0.0753107
0.269135
0.0586064
0.0580248
0.185011
0.170057
0.270186
0.066491
0.181783
0.16921
0.158076
0.247639
0.162734
0.0286036
0.0536204
0.269607
0.0922431
0.13806
0.174668
0.142233
0.123967
0.0954452
0.124276
0.238736
0.098172
0.120254
0.182969
0.166359
0.18082
0.193928
0.155619
0.267279
0.262762
0.157451
0.181146
0.0718864
0.276683
0.175778
0.059578
0.0711199
0.109126
0.276856
0.157074
0.125577
0.167002
0.120155
0.166965
0.177486
0.12046
0.284312
0.185705
0.182109
0.0568927
0.0964691
0.0270864
0.178155
0.0374334
0.230434
0.17617
0.164326
0.129027
0.157186
0.133162
0.0722398
0.132922
0.164345
0.0961701
0.0655172
0.0724883
0.14321
0.0585446
0.0595504
0.13716
0.167482
0.139223
0.0972433
0.104292
0.170722
0.170251
0.178531
0.186694
0.164147
0.16735
0.171476
0.10168
0.0567214
0.127426
0.279566
0.17244
0.0661467
0.182026
0.163542