/*--------------------------------*- C++ -*----------------------------------*\
| =========                 |                                                 |
| \\      /  F ield         | OpenFOAM Extend Project: Open source CFD        |
|  \\    /   O peration     | Version:  1.6-ext                               |
|   \\  /    A nd           | Web:      www.extend-project.de                 |
|    \\/     M anipulation  |                                                 |
\*---------------------------------------------------------------------------*/
FoamFile
{
    version     2.0;
    format      ascii;
    class       surfaceScalarField;
    location    "2000";
    object      phi;
}
// * * * * * * * * * * * * * * * * * * * * * * * * * * * * * * * * * * * * * //

dimensions      [0 3 -1 0 0 0 0];

internalField   nonuniform List<scalar> 
48217
(
7.16236e-05
2.44605e-05
-0.000388499
0.000292415
-0.000136277
5.49337e-05
-5.25742e-05
0.000133917
5.69933e-05
-6.41658e-05
0.000502403
-0.000495231
4.4155e-05
-4.84001e-05
-4.05397e-05
4.47848e-05
-1.60284e-05
3.96593e-06
1.90174e-06
1.01607e-05
-2.31216e-05
6.23432e-05
-6.90758e-05
2.98542e-05
-0.00018835
8.19005e-06
0.00019752
-1.73599e-05
-0.000205144
-0.000215668
0.000302639
0.000118173
-3.89268e-05
1.25171e-06
-2.2683e-05
6.03581e-05
9.90155e-05
-0.000130907
0.000141512
-0.00010962
0.000570729
-0.000113262
-0.000457467
-0.000321753
0.000235832
-0.00016988
0.0002558
-0.000113559
-9.28434e-05
0.000154772
5.16302e-05
1.03816e-05
0.000169791
-0.00054722
0.000367047
-4.53332e-05
-1.85683e-05
9.34178e-05
-2.95163e-05
0.000142947
-4.32826e-05
1.44311e-05
-0.000114096
0.000245389
-0.000149799
0.000196745
-0.000292335
-5.85617e-05
-6.78672e-05
4.59276e-05
8.05014e-05
8.9147e-05
-1.64372e-05
0.000178803
-0.000251513
-0.000526818
0.000483719
-1.49564e-05
5.80559e-05
9.30775e-05
-6.89403e-05
-1.40889e-05
-1.00483e-05
0.000101358
-0.000363826
-4.8871e-05
0.000311339
-3.67674e-05
-2.56413e-05
4.69729e-05
1.54358e-05
-3.3568e-05
-3.49155e-05
1.94371e-05
4.90463e-05
-0.000198898
0.000181329
8.47891e-07
1.67207e-05
-0.000171728
0.000174546
0.000220777
-0.000223596
-0.000157498
0.000156882
0.000197845
-0.000197229
-8.53434e-06
3.94979e-05
0.000132782
-0.000163746
-8.78084e-05
8.71358e-05
-2.24492e-05
1.64459e-05
-1.71852e-05
-8.28308e-05
8.35701e-05
4.119e-05
-8.02073e-05
-4.21406e-05
8.11579e-05
0.000152594
-0.000510118
-0.000105124
0.000462647
5.50278e-05
3.9914e-06
-5.56747e-05
-3.34454e-06
0.00014709
-0.000121264
1.03582e-05
-3.61839e-05
0.000147785
-0.000125357
1.33963e-06
-2.37676e-05
0.000165729
-0.000325597
-0.000257094
0.000416962
0.000538024
-0.000346783
-0.000527422
0.000336181
2.25394e-05
-0.000166545
1.07286e-05
0.000133277
1.18168e-05
-8.39057e-05
2.74084e-06
6.9348e-05
-0.000125896
-3.00826e-05
6.66702e-05
8.93084e-05
6.40057e-05
-5.3702e-05
8.02753e-05
-9.0579e-05
-9.27366e-05
0.000147525
0.000102804
-0.000157592
0.000148873
-5.71958e-05
-0.000131917
4.02398e-05
-3.39904e-05
0.000112129
3.96861e-05
-0.000117825
0.000165165
-2.26601e-05
-0.000179501
3.69955e-05
0.00080508
-0.000195563
-0.000609517
5.1762e-05
2.88098e-05
-0.000343075
0.000262504
-0.000328574
0.000174499
0.00101219
-0.000858119
7.43985e-05
0.000141585
-7.31087e-05
-0.000142875
-2.27338e-06
2.27194e-05
-2.25904e-05
2.14437e-06
-0.000187999
-3.22207e-05
0.00017304
4.71799e-05
-4.57986e-05
-0.00010207
0.000117416
3.04528e-05
6.84606e-05
0.000313041
-0.00020348
-0.000178022
-0.000214854
-0.00019357
0.000200181
0.000208242
-0.000270427
-0.00022819
0.000234197
0.00026442
-0.000463945
0.000314303
0.000617585
-0.000467943
-5.00481e-05
7.49812e-05
-2.60038e-05
1.07067e-06
2.64104e-05
-4.68475e-05
6.39973e-05
-4.35602e-05
-0.000131558
0.000203161
0.000950934
-0.00102254
-0.000270845
0.000193114
-0.000139271
0.000217002
0.000186687
-0.000451958
-0.000149287
0.000414559
7.6491e-05
-8.18997e-05
4.37777e-05
-3.8369e-05
-8.07028e-06
-1.20166e-05
9.65746e-05
-7.64877e-05
1.35431e-05
-2.26453e-05
6.53247e-05
-5.62224e-05
3.86114e-07
-9.98953e-05
-0.000427309
0.000158968
-0.000154697
-4.2711e-06
-0.000558969
0.000451224
0.000474345
-0.0003666
-1.59616e-05
4.50164e-05
-0.000150104
0.000121049
-0.000157399
-3.28811e-05
0.00019028
-0.000124109
0.000135241
-0.000140866
0.000129733
0.000106801
-0.000122909
0.000169045
-0.000152937
-0.000124034
0.000148639
-2.46055e-05
0.000206131
-1.59945e-05
2.77897e-05
-0.000217926
3.61861e-05
-0.000138561
3.87024e-05
6.36729e-05
0.000175892
3.50376e-07
7.638e-06
-0.000183881
0.000668604
-0.00015016
-0.000714418
0.000195974
-0.000217722
0.000297287
0.000197271
-0.000276836
6.85538e-06
1.11567e-05
0.000127631
-0.000145643
3.59057e-05
-2.3646e-05
0.000117579
-0.000129838
8.75153e-05
1.69547e-05
7.82392e-07
-0.000105252
8.25107e-05
-2.32942e-05
-5.92165e-05
0.000161875
0.000235647
-0.000189456
-0.000208067
2.12296e-05
-6.75717e-05
1.81269e-05
2.82152e-05
0.000394358
-7.28748e-05
-0.000402268
8.07841e-05
6.74523e-05
-3.49334e-05
0.000290563
-0.000323081
-0.00080456
-0.000591049
0.000649864
0.000745745
0.000274956
-0.000288902
-0.000164754
0.0001787
-0.000285343
-6.3787e-05
7.28853e-05
0.000276245
-7.66749e-05
2.26377e-05
-0.000523534
0.000577571
-0.0001509
-5.30638e-05
0.000104916
9.90478e-05
0.00023948
-1.4115e-06
-1.26161e-05
-0.000225453
7.80336e-06
1.02371e-05
-0.000128952
0.000110912
6.2744e-06
-8.27823e-06
-1.40816e-05
1.60854e-05
-8.17041e-05
0.000126217
-0.000158387
0.000113874
-0.000552822
-0.000261143
0.000165099
0.000648865
-1.76021e-05
0.000212606
-0.000215744
2.07399e-05
4.98848e-06
-1.24503e-06
-2.66634e-07
-3.47682e-06
-4.66746e-05
3.93321e-05
7.21676e-05
-6.48251e-05
-0.000156623
-0.000118963
0.000118971
0.000156615
3.85628e-05
0.00029023
-0.000277031
-7.59342e-05
3.44144e-05
8.51624e-07
4.06682e-05
9.605e-06
-1.32945e-05
5.09363e-06
-1.40413e-06
0.000141706
-0.000121363
-0.000249884
0.00022954
-0.000245533
-0.000120616
0.000243322
0.000122827
1.93062e-05
0.000105581
-0.000124887
-0.000298057
-7.27592e-05
0.000370817
-0.000265385
-6.29223e-05
0.000328308
4.54959e-05
0.000273106
-0.00010052
-0.000218082
8.56687e-05
0.000249643
-0.00015104
-0.000184271
-0.000412692
-2.54064e-05
0.000142324
0.000295774
-1.97898e-05
9.14359e-05
0.000163404
-0.00023505
-7.29035e-05
-0.000149387
0.000167866
5.44247e-05
7.67447e-05
0.000114457
-9.96782e-05
-9.15234e-05
-0.000104047
-0.000138067
8.63239e-05
0.000155791
-5.74137e-05
2.46183e-05
1.81206e-05
1.46748e-05
-0.000113008
0.000130959
-1.79511e-05
0.000135748
-0.000145064
-9.87948e-05
0.00010811
-0.000630276
9.05411e-05
0.00061921
-7.94747e-05
0.000375969
-0.000395589
0.0004806
-0.000460981
-0.000339066
0.000253291
-9.31835e-05
0.000178958
0.000422959
-0.000165271
-0.000330497
7.28084e-05
-6.7503e-05
6.18715e-05
2.58901e-05
-2.02585e-05
0.000110047
-2.41916e-05
-9.91681e-05
1.33127e-05
6.88404e-05
-3.86591e-05
-4.72451e-05
1.70638e-05
4.46041e-05
-3.58712e-05
-3.60303e-05
2.72974e-05
7.16638e-05
-4.04528e-05
-5.08998e-05
1.96889e-05
-0.000135543
5.85199e-05
-0.000133558
0.000210581
-0.000429439
-0.000417265
0.000567292
0.000279411
-0.000168944
0.000181985
-1.30407e-05
5.21847e-05
5.57795e-05
-2.21703e-05
-8.57939e-05
4.8246e-05
6.10421e-05
-2.14631e-05
-8.7825e-05
4.96574e-05
5.84385e-05
-2.26129e-05
-8.5483e-05
5.54699e-05
0.000134054
-9.84608e-05
-9.10632e-05
-0.000416809
0.000577988
0.00011295
-0.000274129
-0.000239756
0.000329991
-0.000286349
0.000196115
-0.000238724
-0.000198526
0.000326971
0.000110279
0.000810744
0.00012926
-0.000134101
-0.000805902
-0.000283819
0.000156915
0.000436422
-0.000309518
-0.000252298
3.41188e-05
0.000246684
-2.85043e-05
-7.80706e-05
8.77613e-05
0.00012962
-0.000139311
-0.000366134
0.000307072
-0.000280004
-0.000247276
0.000343544
-0.000271773
0.000175505
0.000601228
-0.000393717
0.00016512
-0.000372631
0.000193497
2.24143e-07
-0.000201911
8.1897e-06
5.588e-05
7.811e-05
-0.000557729
0.000423739
-0.000485275
-0.000193952
0.000527311
0.000151916
-0.000712495
-0.000419621
0.000395899
0.000736216
-8.36355e-05
5.24043e-05
0.000146134
-0.000114902
-1.32497e-05
7.86726e-05
-6.1578e-05
-3.84487e-06
0.000209159
3.29597e-05
4.5645e-05
-0.000287764
0.000239566
5.94589e-05
-0.000318815
-0.000954415
0.000674219
0.000750108
-0.000469912
0.000102951
-0.000110228
5.69586e-07
6.70687e-06
-4.14238e-05
-0.000581725
7.74123e-05
0.000545737
-0.000165399
0.000110691
-1.20273e-05
6.67352e-05
-0.000193609
0.000253469
0.000116837
-0.000176697
8.86643e-05
-6.93273e-05
3.03247e-05
-4.96617e-05
0.000833952
-0.000421684
0.000746136
-0.0011584
6.26456e-05
-7.04503e-05
-3.67882e-05
4.45929e-05
6.11579e-05
-5.19367e-05
-1.24655e-07
-9.09655e-06
8.54346e-05
0.00067203
-0.000156237
-0.000150992
-7.11633e-05
7.22308e-05
0.000149925
-0.000167662
-0.000683318
0.00085098
-0.000176914
-0.000641953
0.000508564
0.000310302
0.000187879
-9.74324e-05
-0.000299346
0.0002089
0.000164223
-0.000134529
-0.000126619
9.69247e-05
-0.00058039
0.000773419
0.000251719
-0.000444748
0.000268509
1.56223e-05
-0.000192855
-9.12768e-05
8.00538e-05
-2.45462e-05
-8.2001e-05
2.64934e-05
-9.22663e-05
0.000281645
-0.000345995
0.000156616
3.14611e-05
-0.000103921
-5.42112e-05
0.000126671
-7.6919e-05
9.6943e-05
-0.000116425
9.64013e-05
-0.000346156
-0.000364125
0.000169627
0.000540654
8.12768e-05
0.000212334
-2.48521e-08
-0.000293586
0.000104836
0.000250065
-0.000176464
-0.000178436
7.24447e-05
-8.29355e-05
-5.71777e-05
6.76686e-05
-8.23435e-05
0.00011811
0.00022549
-0.000261256
5.07083e-05
-0.000145962
-0.000302715
0.000397969
-4.99544e-05
0.000120165
0.000111596
-0.000181806
-0.000139216
0.00016179
0.000153425
-0.000175998
-0.000606623
0.000892266
0.000598197
-0.00088384
0.000861449
-0.000974102
-0.000723673
0.000836326
0.00012137
-0.000185127
-0.000154622
0.000218378
1.18641e-05
-2.90493e-05
1.71852e-05
-6.66116e-05
2.96336e-05
-4.22498e-05
7.92277e-05
-2.43821e-05
-0.000359488
-2.88221e-05
0.000420512
-0.000578319
-3.33624e-05
0.000191169
8.78557e-05
5.11994e-05
-9.6568e-05
-4.24871e-05
0.000226058
0.000122855
-5.13096e-05
-0.000297603
0.000102175
-9.07203e-05
-0.000171645
0.000160191
0.000104853
-9.0213e-05
-0.000161354
0.000146714
4.77911e-05
-7.82919e-05
-6.41072e-05
9.46079e-05
2.28602e-05
-3.04655e-05
4.62801e-06
2.97729e-06
-9.27826e-06
-0.000262441
9.83077e-07
0.000270737
-0.000176967
0.00022238
-0.000207888
0.000162475
-5.23355e-05
2.29345e-05
-5.91169e-05
8.8518e-05
-9.73207e-06
-0.000132354
0.000142086
-8.78904e-05
1.03719e-06
-9.99797e-05
0.000186833
-0.00047958
-0.000252685
0.000479022
0.000253243
-0.000583873
7.74295e-05
0.000623402
-0.000116958
5.13315e-06
0.000102093
-0.000107226
0.000126423
-0.000201417
-0.000200595
0.000275589
-0.000871993
0.000693998
0.000177994
-0.000122305
4.11306e-05
-2.07041e-05
0.000101878
-0.000142907
0.000119485
9.87413e-05
-7.53193e-05
0.000983242
-2.78327e-05
-0.000955409
5.18202e-05
3.62964e-05
-2.46119e-05
-6.35047e-05
-1.52883e-05
-0.000102808
0.000118096
-0.000232242
3.25969e-05
0.000229834
-3.01881e-05
4.45065e-05
-6.26551e-05
-0.000109121
0.000127269
0.000515297
-0.000670786
0.000530248
-0.00037476
-0.000264567
-5.33323e-06
8.5611e-05
-5.81786e-05
-2.74324e-05
0.000121507
-4.27949e-05
2.11022e-05
-9.98143e-05
-0.000143412
7.14423e-06
0.000116581
1.9687e-05
0.000518648
-0.000580371
-0.0002582
0.000319923
-0.000337465
-0.000226208
0.00027659
0.000287084
-2.94062e-05
2.02278e-05
0.000196451
-0.000187272
-0.000192814
7.43242e-06
0.00013068
5.47013e-05
7.60069e-05
4.66086e-05
-2.7823e-05
-9.47925e-05
-3.92941e-05
4.49293e-05
0.000174989
-0.000180624
-3.94645e-05
4.96119e-05
7.44343e-05
-8.45816e-05
-0.000104842
-0.000190102
0.000118902
0.000176043
-0.000249988
-1.166e-05
7.79858e-05
-2.30462e-05
2.66695e-06
-5.76066e-05
1.21869e-07
-0.000141467
0.000115384
2.59608e-05
-5.69819e-05
9.37057e-05
-0.000100268
6.35441e-05
-0.00016669
-3.22954e-05
3.75927e-05
0.000161393
3.84124e-06
-1.75443e-05
-7.79954e-05
9.16985e-05
9.9689e-05
9.57939e-05
-0.000100581
-9.49018e-05
0.000115891
-0.000123871
-9.30231e-06
1.72822e-05
5.43719e-05
-0.000174525
-0.000130591
0.000250744
5.34754e-06
-4.73531e-05
-3.84968e-05
8.05023e-05
0.000512391
-0.000478467
-4.21014e-05
8.17762e-06
-4.07844e-05
2.96693e-06
2.05446e-05
1.72729e-05
-7.01941e-05
-6.07829e-05
7.82681e-05
5.27089e-05
-1.43351e-05
7.68176e-05
-1.37554e-05
-4.87271e-05
6.31696e-05
4.46804e-05
-5.26418e-05
-5.52083e-05
-0.000149197
0.000138985
1.9131e-05
-8.91926e-06
-0.000167486
-0.000331311
0.000426458
7.23385e-05
-0.000108511
-0.00018366
0.000173529
0.000118642
5.43056e-05
-1.02062e-06
-6.8471e-05
1.5186e-05
4.93674e-05
-4.0527e-05
5.06348e-05
-5.94752e-05
-4.65278e-05
5.54039e-05
7.57002e-06
-0.000207431
5.24802e-05
-4.28729e-05
0.000197824
1.56609e-05
-0.00017306
-2.27127e-05
0.000396055
-0.00031979
-5.35521e-05
-0.000132783
0.000814634
0.000128893
-8.30801e-05
7.16857e-05
-6.90673e-05
8.04616e-05
-0.000207797
-0.000524272
0.000688132
4.39369e-05
-0.000113882
-8.48421e-05
0.000108069
9.06551e-05
5.41851e-05
-1.79017e-05
-5.497e-05
1.86865e-05
0.0001123
-4.09842e-05
-9.58019e-05
2.44863e-05
0.000114849
-4.0631e-05
-9.57506e-05
2.15326e-05
-8.97348e-05
2.70922e-05
7.69803e-05
-1.43377e-05
-0.000100294
3.75788e-05
8.16647e-05
-1.895e-05
-0.000116945
4.1279e-05
9.63563e-05
-2.06907e-05
2.66645e-05
8.61883e-05
-6.20869e-05
-5.07659e-05
-0.000134489
-4.28888e-05
5.43247e-05
0.000123053
-0.000256558
0.000340791
-0.000255251
0.000171018
-5.56511e-05
5.82284e-05
-2.57731e-06
1.17451e-05
-3.24276e-05
1.1583e-05
9.09945e-06
4.88768e-05
-2.05951e-06
4.76954e-05
-9.45127e-05
-0.000152736
0.000213266
0.000216525
-0.000277055
-2.69723e-05
-7.95089e-06
-4.00492e-06
0.000421626
-0.00077537
0.000353743
-0.000151829
0.001066
-0.000986361
7.21883e-05
-3.17839e-05
6.26892e-05
8.67154e-06
-3.95769e-05
-7.56218e-05
0.00021399
7.45387e-05
-0.000212906
0.000867116
-0.000873791
0.000135935
-0.000394542
-0.000107324
0.000181704
0.000320162
0.00015082
3.17335e-05
-0.000239239
5.66857e-05
0.000204619
0.000723962
-0.000928581
5.87105e-06
2.32242e-06
-7.84965e-05
7.03031e-05
-5.64975e-05
8.76457e-05
-3.11481e-05
4.07337e-05
-6.97579e-05
-2.91182e-05
5.81424e-05
2.96483e-05
-3.0319e-05
6.94584e-06
-3.55421e-05
-0.000178216
7.62181e-06
0.000206136
-0.000157827
0.000161437
0.000115838
-0.000119448
0.000348862
-0.000242844
0.000284609
-0.000390627
0.000354464
-0.000269822
0.000285414
-0.000370055
0.000114573
0.000455272
-0.000187658
-0.000382187
-4.31072e-06
7.90393e-06
5.79348e-05
-6.1528e-05
0.000889356
-0.00101075
0.000121396
-0.000142319
-0.000254391
1.49678e-05
0.000381742
-0.00106607
-0.000364477
0.00143055
0.000212964
-0.000203873
-9.09178e-06
-0.000164642
0.000174847
-1.02051e-05
-0.000808198
0.00073352
-5.94231e-05
0.000113509
9.05363e-05
-0.000146177
-5.78676e-05
9.82295e-05
-2.41669e-05
-8.37946e-05
0.000394
-1.5459e-05
0.000165414
-0.000543955
0.000697283
0.000360587
-0.000345375
-0.000712495
0.000346616
0.000682444
-0.000331777
2.09835e-05
-0.000167446
-0.000135138
-4.94133e-05
0.000122539
6.20129e-05
5.90472e-05
-9.93362e-05
-7.16803e-05
0.000111969
0.000738647
0.000386847
-0.000764907
-0.000187058
0.000159659
2.73994e-05
0.000196752
0.000530369
-0.000845797
-0.000242444
0.000557872
0.000302794
-0.000644113
0.000633608
-0.00029229
-0.000699787
0.000284666
-0.000416968
0.00083209
1.3977e-05
2.21967e-05
-2.06187e-05
-1.5555e-05
2.96797e-06
1.1671e-05
-1.3933e-05
-7.05995e-07
0.000125879
-0.000226217
-0.000114718
0.000215057
1.51759e-05
9.59026e-05
-0.00014421
3.31318e-05
0.000356964
6.44588e-05
-0.000421423
-8.58177e-05
-6.33956e-05
0.000149213
-0.000625434
0.000466051
0.000136749
2.26342e-05
0.00016501
2.83579e-05
-0.000193368
0.000513221
-0.000292115
-0.000392713
0.000171607
-4.78734e-05
-3.24632e-05
4.95932e-05
3.07434e-05
0.000115969
-0.00021448
-9.9232e-05
0.000197743
-0.00011699
-0.00016059
0.000189033
8.85459e-05
-0.000163389
0.000106785
0.000136043
-7.94391e-05
4.90081e-05
0.000470923
-8.67571e-05
-0.000433174
3.21933e-05
-7.62212e-05
-5.83085e-05
0.000102336
0.000121907
0.000150282
-0.000152214
-0.000119976
-9.90324e-05
0.000179798
6.94587e-05
-0.000150224
2.83911e-05
-1.49938e-05
-0.000263386
-0.000241547
0.000245191
-0.000359081
0.000355437
0.000245662
-0.000115296
-0.000579219
0.000448853
-6.69722e-05
-0.000118549
0.000185521
-7.48584e-05
-4.69925e-05
6.77842e-05
5.40667e-05
0.000104386
-4.27226e-05
-9.21215e-05
3.04578e-05
-0.000187232
0.000118645
0.000329734
-0.000261147
-0.000659004
0.00031591
-0.000215875
-0.00020953
5.32458e-06
-1.15382e-05
-0.000356997
0.000214061
-0.000289622
0.000432558
-2.94333e-05
2.19072e-05
6.09025e-05
-5.33764e-05
2.33188e-05
-2.13312e-05
-1.98751e-06
0.000372176
0.000713088
-0.000265002
-2.84385e-05
0.000270728
5.40109e-05
-5.60751e-05
0.000127683
-0.000125619
-0.000222008
7.52112e-05
0.000201937
-5.51399e-05
-0.000134079
0.00011086
-4.10724e-05
6.42912e-05
-0.000325423
0.00023486
-0.000132849
0.000223412
-3.65583e-05
0.000266247
5.3808e-05
-0.000283497
-5.29368e-05
-0.000208867
0.000155322
0.000106481
-3.12895e-05
8.14252e-06
3.89942e-06
1.92475e-05
3.5085e-05
-3.1102e-05
-0.000288096
0.000284113
2.27627e-05
-5.22582e-05
4.31182e-05
-1.36227e-05
9.76629e-05
-4.04491e-05
6.6964e-06
-6.39102e-05
-0.000831742
0.00085975
-0.000436419
0.000408411
-3.40191e-05
-0.000318603
0.000316064
-0.000140076
-7.50497e-05
9.10168e-05
4.86884e-05
-5.28822e-05
-0.000286175
0.000290369
-3.98688e-05
3.50059e-05
0.000201615
0.000764143
0.000422941
-0.000800237
-5.52292e-05
1.87627e-05
6.8762e-05
-3.22954e-05
-6.899e-05
6.4448e-05
7.16743e-05
-6.71322e-05
-1.94783e-05
3.24385e-05
-1.72547e-05
4.29457e-06
0.00023542
6.84498e-05
-0.000255182
0.000322248
0.00066299
-6.80092e-05
-5.01904e-05
6.40968e-05
5.41027e-05
-2.46085e-05
2.78712e-05
-3.25712e-05
2.93085e-05
-1.81367e-05
-1.87352e-05
3.04116e-05
6.46037e-06
-1.78766e-06
0.000236361
-0.000206681
-2.78914e-05
-1.03069e-05
0.000261723
-0.000226168
-2.52485e-05
0.000105277
-1.96657e-05
4.31945e-05
4.85203e-05
-0.000464659
0.000372945
-0.00067398
0.000680117
-6.13629e-06
0.000242748
1.14687e-05
-2.86714e-05
-0.000225545
0.000220981
1.30732e-05
-2.62337e-05
-0.000207821
-0.000343315
-0.00142739
0.00133883
0.000431877
6.04541e-06
0.000343963
-0.000306251
-4.37565e-05
0.000113592
-3.70465e-05
5.43142e-05
-0.00013086
3.05226e-06
0.000316624
-0.000284167
-3.55094e-05
5.07459e-05
3.07612e-05
-0.000429853
0.000348346
-0.000138239
1.51201e-05
0.000601133
-0.000478014
-0.000153124
-2.74353e-05
4.64804e-05
-0.000311518
-0.000116017
0.000426242
1.29349e-06
-0.000168177
-0.000211135
0.000250432
0.000128881
0.000149839
-6.61622e-05
-0.00019756
2.78139e-05
2.56008e-05
-0.000246485
0.00019307
7.30567e-05
-4.8786e-05
-0.000483671
0.0004594
-5.61073e-05
4.48199e-05
0.000202345
-0.000191057
-1.62375e-05
2.66479e-05
1.92378e-05
-0.000100135
0.000113036
-0.000116948
-1.52268e-05
3.06442e-05
-1.3569e-05
-1.84846e-06
0.000143248
-5.16901e-05
-0.00012003
2.84719e-05
-7.81334e-05
0.000104004
-1.06546e-05
-1.52165e-05
-9.40381e-05
0.000127633
-3.82294e-05
4.63442e-06
0.000408783
0.00011021
-5.96337e-05
-0.000459359
0.000758154
8.5964e-05
-4.94003e-05
-0.000794718
0.000393425
-0.000378153
0.000239361
-0.000254633
-0.000179674
0.000234647
-5.64464e-06
-4.93286e-05
1.03145e-05
-0.0002403
-1.28411e-05
0.000242826
-0.000199921
0.000259832
1.35754e-06
-6.12684e-05
0.000729922
0.000406396
0.000347774
-8.08527e-05
0.0002002
-0.000467121
-0.000272528
-0.000368848
0.000351759
0.000289617
-0.000102932
-0.00024052
6.19799e-05
0.000281472
0.00022976
-0.000161828
0.00043809
-0.000506022
-5.79457e-06
-8.31767e-05
-2.046e-06
9.10173e-05
-0.000119318
-0.000206139
0.000145944
0.000179513
-8.94348e-05
-0.000134599
9.20061e-05
0.000132028
-9.08194e-05
-7.28391e-05
0.000107161
0.000477919
-9.03222e-05
0.000133926
-0.000521523
0.000105092
-0.00010193
-8.2478e-05
7.9316e-05
6.02827e-05
-6.0165e-05
-7.33773e-05
7.32596e-05
0.000408167
0.000292335
-0.000700502
0.000114017
-2.54997e-05
-8.85172e-05
-8.49756e-05
-0.000121951
0.000103928
0.000102999
7.93989e-06
0.000361289
3.35127e-05
-0.000402741
2.33201e-05
0.000348015
0.000687321
-0.000199553
6.94676e-06
0.000578879
-0.000386272
1.19981e-05
-1.81218e-05
2.00998e-05
-0.000451255
8.29171e-05
3.12205e-05
0.000337118
-0.000216622
-0.00010998
0.000156177
0.000170425
-0.000824134
0.000776139
0.000470936
-0.000147701
4.31604e-05
-4.05787e-05
0.00014512
1.29034e-05
-3.43923e-05
0.00010092
-7.94313e-05
0.000165833
2.8446e-05
-5.67859e-05
-0.000137493
-5.0489e-05
2.14076e-05
3.20675e-06
2.58747e-05
-4.53656e-05
3.42901e-05
-7.27641e-07
1.18031e-05
-0.000304478
5.08353e-05
0.000368216
-6.9155e-05
7.63101e-06
5.3333e-05
8.19104e-06
5.22225e-05
-8.15977e-05
8.33862e-05
0.000161247
-0.000163007
1.76026e-06
-5.98807e-05
4.2988e-05
9.86023e-05
-8.17095e-05
-0.00021442
-0.000178584
0.00027452
0.000118485
0.000109626
-0.000552509
-0.000182551
-0.000268434
0.000257056
0.000845331
-3.87978e-05
6.57897e-05
7.22884e-05
-9.92803e-05
0.000347802
-0.000359442
2.0847e-05
-9.20762e-06
5.60606e-05
0.000110771
-5.55209e-05
-0.000111311
1.51013e-05
-2.08545e-05
8.52976e-05
-7.95443e-05
0.000949753
0.000417388
-0.0010873
-0.000279836
0.000291792
-0.000242079
-0.000155474
0.00010576
-0.000434191
-0.000503739
0.000987849
-4.99195e-05
6.01545e-05
7.33197e-05
-2.74262e-05
-0.000106048
-9.85336e-05
8.97456e-06
0.00013467
-4.51114e-05
-0.000262494
5.3779e-05
-6.42149e-05
0.00027293
-0.000318777
1.73673e-05
0.000290963
1.04467e-05
-0.000388669
-0.00083086
0.000419292
-0.000371805
-0.00070695
0.000713392
0.000365363
-0.000102059
-5.52604e-06
7.11437e-06
0.00010047
-0.000294542
1.55291e-05
0.000267793
1.12201e-05
4.05657e-05
-0.000271234
-6.01851e-05
0.000290853
9.8653e-05
-9.04782e-05
-5.6432e-05
4.82573e-05
0.000331244
-0.000279059
-3.39047e-05
-1.82806e-05
-0.000166074
0.000971153
9.33984e-05
-9.3588e-05
-2.7859e-05
2.80486e-05
-0.000190091
-0.000115371
0.000226478
7.8984e-05
0.000255698
-8.6373e-05
9.94498e-05
-0.000268775
1.89406e-05
-5.93433e-05
0.000181503
-0.0001411
-0.00108424
0.000555089
-0.000279052
4.15914e-06
-5.98182e-06
6.38997e-05
-6.2077e-05
-2.51024e-05
0.000372503
-2.82203e-05
-0.00031918
0.000160815
-0.000362628
0.000303147
-0.000101335
0.000367868
-0.000140507
-0.000311538
8.41778e-05
0.000338098
-0.000132455
0.000151034
-0.000356676
-2.55494e-05
-0.000212962
1.87096e-05
0.000219802
-0.000364024
0.000333136
0.000496112
-0.000465224
-4.29737e-05
-0.000190518
6.34007e-05
0.000170091
-7.9135e-05
-0.000306171
0.000238799
0.000146507
0.000193165
0.000227408
-0.000124852
-0.000295721
2.66134e-05
-0.000132462
-0.000114845
0.000103062
0.000144245
-2.80801e-05
-0.000224474
0.000242248
-1.8313e-05
-0.000208119
0.000224644
-0.000125683
0.000244157
-0.000443896
-0.000118107
-5.92655e-06
-6.55211e-05
6.20867e-05
6.52148e-05
-6.17805e-05
6.95301e-05
-6.95002e-05
-0.000216399
0.000216369
0.000202593
-0.000114952
0.000115122
-0.000202763
-0.000475963
0.00037983
-0.000143345
0.000239478
0.000114973
-8.2649e-05
2.67224e-05
-0.000364151
-0.000789425
0.000646305
-0.00064596
-0.00034572
0.000208411
6.91872e-05
-7.33331e-06
-0.000270264
0.000233492
7.24507e-05
-3.27119e-06
-0.000302671
0.000286833
0.000389549
-0.000290698
-0.000385684
1.33028e-05
-0.000296217
-3.92018e-05
0.000322116
9.70813e-05
0.000792275
0.000122094
-0.000115907
6.49977e-05
-7.11853e-05
0.000329585
-0.000583545
-0.000352546
0.000606505
0.000110059
-2.313e-05
-0.000120115
3.31863e-05
4.09306e-05
0.000106926
-4.48198e-05
-0.000103037
4.73661e-06
0.000141884
-0.000127773
-1.88485e-05
-0.000135911
0.000196374
-0.000188517
0.000128054
-5.62754e-05
0.000453166
-0.000422761
2.58705e-05
0.000706132
4.38471e-05
6.314e-06
-2.36462e-05
-2.65149e-05
0.000784021
-0.000183284
5.60269e-05
0.000842462
-0.000974066
7.55779e-05
-0.000160742
0.000155425
2.69888e-05
-2.16721e-05
9.96834e-05
-0.000146039
-6.94933e-05
0.000115849
0.000535443
-0.000259494
0.00025649
-0.000532439
-0.00127919
6.42111e-05
-2.63064e-05
2.3529e-05
-6.14337e-05
0.000454956
-0.000405698
-7.4361e-05
0.000171767
-0.000359088
-5.8212e-05
-0.000109773
8.22129e-05
-9.88421e-05
0.000126402
0.000243309
-9.16383e-05
-0.000151671
-9.41604e-05
-0.000275603
0.000129232
0.000240531
-0.000152152
0.000167859
3.90558e-05
-5.47625e-05
5.99146e-05
-2.66045e-05
-0.000152859
0.000119549
7.38545e-05
-6.88715e-05
9.53533e-05
-0.000100336
-0.00031363
0.000319152
0.000316308
-0.00032183
0.000279699
0.000295909
-0.000379983
-0.000195625
5.72586e-06
-0.000263082
0.000267671
-0.000444943
0.000298495
0.000530467
-0.000384019
-7.42308e-05
-0.000134028
-0.000352717
3.99849e-05
-4.99431e-05
5.63214e-05
-1.73721e-05
1.09939e-05
-4.49293e-05
3.7016e-05
-6.57487e-07
8.57073e-06
-5.92654e-05
6.92452e-05
-2.05673e-05
1.05876e-05
-7.07416e-05
8.01065e-05
-1.99282e-05
1.05633e-05
-0.000328328
3.68386e-05
-8.23874e-05
-3.25894e-05
5.63572e-05
5.86196e-05
-0.000123002
0.000112543
0.000158554
-0.000148095
-0.000280542
-0.000347497
0.00039641
0.00023163
-1.25585e-05
-0.000405775
0.00051084
-9.2507e-05
5.18283e-05
-1.4806e-05
8.60792e-05
-0.000123102
4.85047e-05
2.53205e-05
-1.95196e-05
3.78874e-05
-2.32139e-06
0.000104255
-0.000139821
0.000154534
-0.000197169
0.000143507
-0.00015288
6.6924e-05
-5.75517e-05
-0.000108089
-6.52146e-06
-2.16669e-05
1.90915e-05
-4.36068e-05
-1.43601e-05
4.64614e-05
-8.25907e-05
0.00034559
-0.000336733
-0.000654816
6.58423e-05
-0.000109676
3.93392e-05
4.49423e-06
-4.66781e-05
-9.46395e-06
4.88567e-05
7.28538e-06
1.54607e-05
-0.000383297
0.000332331
3.55053e-05
-0.000731056
0.000208933
-9.5449e-05
0.000459663
-0.000573146
0.000530162
7.95792e-06
5.09432e-05
-0.000589063
-5.43336e-05
5.82065e-05
-7.39221e-05
7.00493e-05
-0.000662693
-0.000258025
0.000305011
0.000615706
3.28474e-05
-5.38442e-05
8.17094e-05
-6.07125e-05
-9.04889e-05
-0.000101104
0.000117285
7.43085e-05
2.40116e-06
-6.89171e-06
-0.000156251
4.81184e-05
8.5186e-05
-0.000105016
-2.82882e-05
8.94884e-05
-0.000123654
9.40796e-05
-0.000316286
0.000666191
0.000356227
0.00168897
-0.00166187
-2.7102e-05
-0.000554356
-0.000374909
-0.000372927
0.000402679
-0.000318558
0.000288806
0.000545462
-0.000452091
-0.000185402
9.20315e-05
0.000108894
-2.7538e-05
-9.85389e-05
1.71827e-05
0.000257458
-0.000183876
-0.000252353
0.000178771
0.000134609
-0.000619514
0.000484905
0.000321944
0.000220692
-0.000389881
-0.000152755
5.57237e-05
-4.50084e-05
5.71814e-05
-6.78968e-05
-0.000644507
0.000452752
0.000283815
-9.20594e-05
-0.000168096
-0.000113878
0.000142548
0.000139425
-9.64934e-05
-8.46785e-05
0.000101752
7.94198e-05
-0.000671382
0.000236336
0.000639666
7.18133e-05
0.000201055
-9.81245e-05
-0.000174744
-0.000236289
-9.63341e-05
7.48945e-05
0.000257729
-0.000180047
0.000126678
6.14524e-06
4.72244e-05
-0.000187267
0.000133945
8.07364e-06
4.52481e-05
0.000178113
4.66477e-06
1.07192e-05
0.000252932
-2.55455e-05
-0.000226487
-8.99838e-07
0.000234185
-1.64847e-05
-0.000209134
-8.56541e-06
-0.000156752
6.30576e-06
0.000227008
-7.65615e-05
-0.000284614
-0.000587379
-8.58313e-05
0.000977052
-0.000891221
-0.000206458
0.000184731
-0.000485783
0.00050751
-3.78955e-05
-8.67258e-05
6.59095e-05
5.87118e-05
0.000169329
-0.00021232
1.70295e-08
2.19439e-05
-6.03536e-05
-0.000313762
0.000352171
0.000180017
-3.7708e-05
-0.00014897
-1.29121e-05
0.000161882
-6.99284e-05
0.000186843
-0.000152457
-1.07699e-05
2.78238e-05
-6.80457e-06
-1.02493e-05
-3.18162e-05
0.000105419
4.89462e-05
-0.000122549
8.1266e-05
-5.84048e-05
-0.000134213
0.000111352
-0.00073536
0.000745677
-1.03171e-05
-1.23811e-05
5.52443e-05
-8.1043e-05
3.81799e-05
-0.000316448
0.000277625
-8.50861e-06
4.73317e-05
-0.000356565
0.000383999
-0.000816858
0.000136295
-9.81489e-05
6.85422e-05
-0.000106688
0.00011377
-9.85128e-05
6.30983e-05
-0.000396161
-1.96543e-05
-2.75256e-05
7.72883e-06
0.000163039
2.16177e-05
-0.000260104
0.000238486
1.89293e-05
-0.000233105
0.000214176
-0.000291658
5.62408e-05
-0.000371956
-1.26129e-05
-6.57802e-05
7.72913e-05
7.42334e-05
-8.57445e-05
-0.000722687
-0.000137147
0.000859834
0.000186378
-0.000175111
-1.12676e-05
0.000387155
-0.000408653
0.000590863
-0.000569365
-0.000160826
0.000256914
0.000387631
0.000232175
-2.6647e-05
-0.000205528
0.000262079
-3.06592e-05
-0.00023142
-0.000271697
-0.000314889
0.00040415
0.000182436
0.000414075
-6.22931e-05
-0.000292415
-5.93661e-05
-0.00013324
0.000210838
-4.00388e-05
-3.75598e-05
-0.000254192
3.40105e-05
7.80206e-05
-8.25661e-05
-0.000113948
0.000118494
4.47248e-05
7.99204e-05
-7.65269e-05
-0.000124047
-8.86658e-05
0.000100221
0.000112492
-0.00040501
-0.000330998
0.000464373
0.000271635
0.000454203
-0.000201824
-0.000413205
-8.35018e-05
9.56977e-05
-6.3891e-05
0.0001735
0.000213464
-0.000122191
-0.000264772
0.000751635
-2.76728e-05
-9.45231e-05
7.22441e-06
8.64126e-05
8.86075e-07
-4.23514e-05
3.96764e-05
8.29254e-05
-8.02505e-05
8.42651e-05
7.84669e-06
-9.21118e-05
9.4428e-05
7.86965e-06
-0.000102298
9.05009e-05
1.60726e-06
-9.21082e-05
9.13463e-05
-3.78116e-07
-9.09682e-05
-0.000350401
-0.000123857
0.000292509
0.000181748
3.04955e-05
0.00090914
-0.000939636
6.26664e-05
-0.000121431
-3.64762e-05
9.52412e-05
0.000296843
-0.000231072
-0.000384879
0.000319108
-0.00035493
0.000272565
-0.000160908
0.000243274
-0.000674028
0.000474253
6.168e-05
0.000138095
-2.54102e-05
5.88077e-05
-5.16145e-05
1.8217e-05
0.000429971
-0.00105099
-0.000338274
0.000959291
0.000840981
0.000120653
-0.000798969
-0.000162665
-5.20876e-05
5.75092e-05
-9.55173e-05
9.00958e-05
0.000256801
-0.000358978
-2.3506e-05
0.000133806
-7.47983e-05
-0.000125107
-0.000216181
0.000273767
6.75214e-05
-0.000218627
0.000132836
0.000111747
-2.59563e-05
-0.000184923
0.000142027
1.62916e-05
4.16668e-05
-4.27168e-05
0.000115472
-0.000114422
-2.97145e-05
5.63494e-05
3.75749e-05
0.000350499
0.000107659
-0.00039506
0.000266976
0.000612755
-0.000246122
0.000104188
7.51759e-05
-9.31269e-05
-8.62372e-05
-2.13698e-05
5.58918e-05
-0.000158176
0.000330541
0.000102186
-0.000376486
0.000165314
-4.79872e-05
-0.000117327
-0.00020438
0.000209978
-0.000360528
-1.69039e-05
0.00041288
-0.000401658
5.68178e-06
1.05684e-05
-0.000389824
0.000394716
-9.61398e-05
4.78268e-05
0.000114885
-6.6572e-05
-4.46287e-06
-9.96125e-05
0.000109946
4.58272e-05
0.000459953
-0.00049409
-0.000373614
0.000588386