/*--------------------------------*- C++ -*----------------------------------*\
| =========                 |                                                 |
| \\      /  F ield         | OpenFOAM Extend Project: Open source CFD        |
|  \\    /   O peration     | Version:  1.6-ext                               |
|   \\  /    A nd           | Web:      www.extend-project.de                 |
|    \\/     M anipulation  |                                                 |
\*---------------------------------------------------------------------------*/
FoamFile
{
    version     2.0;
    format      ascii;
    class       volScalarField;
    location    "2000";
    object      Qr;
}
// * * * * * * * * * * * * * * * * * * * * * * * * * * * * * * * * * * * * * //

dimensions      [1 0 -3 0 0 0 0];

internalField   uniform 0;

boundaryField
{
    cabHeatTransmissiveWall
    {
        type            calculated;
        value           nonuniform List<scalar> 
189
(
19.795
38.4614
27.6076
36.3771
49.1299
19.9311
27.1247
41.6183
39.74
20.5795
21.8162
22.1845
20.6226
35.1878
20.716
33.3597
35.6473
19.1591
19.0282
20.6642
41.2399
28.759
21.4556
20.2771
53.1369
37.4406
34.5011
18.2682
20.1547
41.6824
43.5398
32.3393
54.8159
48.8023
30.8556
28.2324
39.2387
46.8302
40.4118
52.7543
20.5531
33.9053
27.3836
28.835
43.9284
41.1935
48.0379
46.3727
31.4173
29.0981
22.6922
27.0844
46.8366
25.083
20.1707
29.2162
48.5515
55.66
47.2715
19.3663
39.4431
47.0608
36.3887
41.244
48.4389
24.8316
42.0964
40.8355
20.0682
29.0552
23.2659
42.4612
41.673
23.4138
26.6186
40.0069
32.3795
34.0782
24.6426
24.4608
49.969
43.5107
34.0484
17.4821
22.089
15.7084
45.9302
36.3494
36.4596
42.9836
33.4296
39.1775
16.5038
19.3586
20.3976
17.064
36.3551
41.866
25.4012
29.8875
34.192
36.7046
19.2478
30.9022
46.8191
24.8141
17.8791
35.9342
29.0085
21.5636
26.1261
29.9627
41.5641
34.2195
35.8485
40.1123
41.2272
36.9523
23.737
21.4829
40.3051
46.4244
25.0294
20.5003
33.401
35.8743
49.367
50.9741
48.7043
37.2704
45.3287
52.0499
39.6373
19.9676
18.8548
34.1787
44.6642
40.4678
21.7812
31.8364
33.7989
24.0059
24.8792
19.0992
23.6736
26.0403
25.9188
26.3138
21.1465
30.3698
25.8856
24.6065
22.9846
25.3807
30.0565
24.2842
21.1365
32.8819
25.2651
29.725
30.9438
24.7001
26.9802
23.4718
26.0376
23.0742
31.0857
39.2882
28.7233
25.6201
31.0831
32.4163
28.7431
38.0903
38.0224
31.2393
25.4197
32.219
34.8434
31.1358
32.588
30.2463
33.5393
31.9874
39.0941
40.6903
29.5383
25.5431
31.2582
)
;
    }
    bayHeatTransmissiveWall
    {
        type            calculated;
        value           nonuniform List<scalar> 
189
(
15.2316
14.4429
21.2311
21.981
31.0785
16.083
18.1264
13.6685
65.2565
38.7279
63.0512
39.4085
52.3264
50.5917
40.266
16.1837
18.8851
20.2026
56.4178
67.2039
73.6119
50.1789
38.5837
15.5322
35.458
65.027
27.0617
18.5285
46.474
33.42
53.2316
67.5302
30.4632
27.6501
19.3875
49.886
59.9659
19.4312
101.004
57.4303
46.2472
57.7701
66.3637
38.7247
34.9031
71.0554
69.2343
16.6212
20.4607
37.4067
35.5646
19.4094
66.5873
48.3212
43.5191
41.0948
48.6961
21.443
32.4719
15.7404
22.2575
87.3739
31.679
14.2882
11.6365
48.4539
87.0698
33.0833
27.3409
20.5796
29.4644
27.2988
49.7525
77.5182
64.0855
62.4801
75.2683
78.4211
39.02
69.8533
76.2568
47.0182
64.5461
52.5122
38.0629
25.068
14.5009
61.4483
39.5361
52.357
18.9935
66.423
13.8786
71.7303
16.3432
20.6751
69.609
74.2841
63.6014
18.0798
40.7765
55.0292
21.6659
62.9255
52.0476
33.4198
44.9366
56.4751
69.2123
14.4127
62.1399
46.7472
33.4191
82.9387
64.924
44.558
41.58
14.9186
54.6744
48.0861
59.6165
60.6983
57.4318
13.4872
21.6625
63.9475
41.8516
73.8045
27.0879
66.9466
29.1466
51.3217
44.6847
19.0766
19.3056
48.2334
53.9692
18.2616
48.7276
14.5528
20.4126
44.4422
46.6225
40.3324
18.3115
38.076
26.1972
34.6759
35.5465
54.9399
31.5726
58.3677
58.0275
49.0216
17.6508
42.1475
62.3577
52.6055
50.5393
50.2212
46.8721
41.896
68.1457
18.2265
57.8081
34.1389
58.2099
39.1222
45.2743
52.3515
54.865
17.5888
20.4587
103.256
58.6988
16.0748
104.035
42.0324
37.8965
38.8178
46.4755
50.678
47.0287
72.7121
50.8168
19.1798
40.8473
50.5159
61.7997
)
;
    }
    walls
    {
        type            calculated;
        value           nonuniform List<scalar> 
228
(
5.24033
9.37369
7.29631
7.41199
14.7941
6.27862
8.08419
10.4863
9.91209
6.34421
6.4103
14.7275
7.30135
12.495
13.5444
9.09096
86.6926
92.0911
30.4492
50.6443
28.6457
51.8852
56.6107
89.4881
64.008
59.6215
54.7299
78.8559
47.8306
82.8134
36.8943
29.5749
70.5635
54.9493
35.0899
13.3391
65.659
78.4018
79.4333
74.5668
22.6138
14.3217
76.7565
79.6474
63.8425
13.0681
82.0486
26.8288
28.7687
110.536
135.07
44.1254
76.7701
25.4838
90.6079
69.8848
28.1854
30.0896
28.9963
51.6868
37.2265
21.5644
58.6148
71.5213
79.4782
87.8354
22.6184
66.9954
67.7219
15.5824
98.8987
15.1263
76.0723
72.0497
81.4464
54.5257
86.6103
68.214
61.8364
33.4799
34.7842
89.7423
39.363
34.6653
31.9043
80.3879
60.5532
33.4235
37.5009
71.0598
78.6867
88.2852
72.5129
29.3032
90.2855
20.4173
89.0115
87.8281
87.7085
53.4179
61.6669
18.1435
80.7931
68.3088
58.4612
74.767
37.3859
16.8444
85.5755
55.6341
79.0143
57.5207
86.5524
89.1788
123.248
58.9121
28.0233
83.0021
61.4233
61.0275
58.4936
37.5446
86.2243
87.0648
56.7114
79.3983
41.7603
103.586
78.6025
120.194
23.7887
32.387
47.8573
20.618
19.845
19.1191
18.2419
17.5082
25.9372
25.7288
25.5333
25.3398
25.1468
29.215
28.9294
28.668
28.4177
28.1732
26.9727
26.0179
25.151
24.2601
23.4892
133.071
129.918
192.951
291.667
338.213
73.885
80.6286
86.7784
92.6897
98.0423
87.9056
93.8522
99.5722
105.293
110.604
169.4
272.38
316.314
338.337
349.355
6.78983
5.87735
9.07745
19.4739
80.2385
84.6231
82.9923
86.3228
69.6256
83.4553
83.1131
79.8088
79.7857
80.0518
73.768
80.4753
67.9733
86.0884
62.1533
55.8614
51.0225
46.8298
41.8464
86.8003
88.1892
87.725
125.121
94.5915
110.782
38.6995
104.706
35.2966
98.1387
52.439
38.8007
67.6284
110.6
99.3699
76.0024
26.2784
91.0483
76.8242
68.4502
85.0793
89.2265
100.075
96.2108
97.9601
117.137
123.987
108.721
31.5448
28.3718
96.3862
39.4784
)
;
    }
    topExtWall
    {
        type            calculated;
        value           nonuniform List<scalar> 
172
(
89.9878
92.8931
78.1279
90.2576
89.6362
92.6156
94.6723
90.8668
86.0094
85.2432
78.9254
78.7472
81.0145
91.38
77.8818
86.635
85.64
89.9989
79.2728
77.0083
77.2044
95.5577
90.4755
91.9942
92.957
82.2681
81.4223
92.5991
76.6811
78.7366
78.9623
95.1944
82.2567
81.4335
94.4719
93.9796
89.5513
78.141
92.3687
95.22
94.2847
93.5091
94.6179
94.9658
79.6141
95.7488
90.9811
95.6101
78.3484
76.6451
92.5332
78.3601
95.3141
90.9031
89.1029
76.4811
92.2381
84.3692
83.1574
78.9671
78.9212
89.0025
89.1905
95.2094
76.6574
89.377
83.2701
83.1151
88.794
95.2434
90.8104
87.8604
90.5567
89.1385
88.4287
77.2567
94.7129
77.2306
90.9401
90.5475
79.5183
77.597
94.419
76.5535
79.2559
89.421
81.3944
91.1426
95.5933
86.8481
88.3555
91.2076
91.2294
77.0408
95.4718
80.7587
76.2916
90.411
90.6141
77.9838
89.46
90.2978
91.1414
77.18
90.564
87.0012
91.3603
90.0896
90.0799
90.2436
93.9996
90.4583
91.1465
78.5052
76.8499
79.8246
76.3573
76.8719
92.0564
90.5041
95.163
76.373
92.9051
95.3078
76.8612
75.8921
78.047
77.8431
87.8063
93.8415
91.4922
76.391
77.4514
78.9819
90.1187
91.6944
91.2127
72.8889
71.9901
80.4646
82.5555
92.1285
92.1923
88.5561
97.8834
98.1958
92.9307
89.091
91.6237
92.5629
96.5456
96.6972
92.8961
92.0834
91.9703
91.7339
93.7344
84.5706
88.7785
91.3139
86.2293
79.7087
79.6811
90.8927
91.6742
67.4535
76.6308
94.4168
96.3778
95.0149
75.4226
97.0591
)
;
    }
    toSolidR
    {
        type            calculated;
        value           nonuniform List<scalar> 
67
(
10.7208
15.1971
13.5219
11.9738
13.6745
19.0787
13.3822
14.0685
29.6442
10.3002
26.449
10.1787
13.0207
12.9751
19.2618
9.2525
12.3292
17.2453
8.92324
25.7018
26.2607
9.17392
16.4276
14.6349
13.3233
11.9773
16.7855
15.9636
18.111
10.5572
11.5241
19.8284
21.3212
11.1733
14.4098
11.6019
14.1226
13.7694
17.7771
21.0109
16.5668
12.4756
17.0492
10.0859
15.5109
12.8028
14.6178
10.1532
15.7705
10.3046
9.24056
13.213
17.8979
15.6697
14.2839
12.7557
22.4392
13.0621
21.5838
14.1646
17.9687
16.6788
26.5081
21.8031
23.9189
13.4442
28.4328
)
;
    }
    cabInlet
    {
        type            calculated;
        value           nonuniform List<scalar> 4(187.073 187.115 187.253 187.007);
    }
    toSolidL
    {
        type            calculated;
        value           nonuniform List<scalar> 
67
(
15.0493
20.4409
11.6509
14.6771
18.8468
17.8643
15.0518
16.3209
17.7418
16.1149
18.092
17.7819
21.5381
15.8983
17.3347
19.4588
15.6153
18.3534
13.0881
16.1359
20.3946
16.7941
18.7118
18.6949
21.209
15.3786
17.1535
19.2319
17.8779
21.4222
31.6358
20.0327
17.7654
18.2471
19.117
19.3577
19.6289
22.8232
19.8648
19.9653
16.9395
18.4177
18.6229
23.364
17.7952
17.8988
16.4976
24.2165
20.2823
19.3097
18.9302
18.1397
18.8393
18.1142
37.3937
34.4153
23.808
35.1804
28.0909
22.7059
27.0042
25.6954
23.4896
25.4011
36.8782
24.4325
31.5412
)
;
    }
    passengers
    {
        type            calculated;
        value           nonuniform List<scalar> 
672
(
88.2304
-158.808
92.7866
-77.8609
93.9394
-204.817
-175.204
-30.8792
-128.17
-196.36
-148.229
100.44
-72.5355
98.7954
-32.1079
-108.52
90.3756
-103.956
65.9392
97.449
72.301
-136.873
-56.8585
-65.2931
-134.163
-98.689
-55.6644
76.6268
107.319
100.275
-275.278
109.098
-190.709
-174.174
85.1931
-224.008
3.02579
91.0027
67.9816
31.1727
-159.948
-61.8715
70.3773
105.593
42.7321
75.6159
66.9682
91.4292
96.6548
-100.853
71.5251
-103.74
-68.8635
-88.1314
67.871
-224.953
101.441
94.4226
58.6072
-100.271
86.8289
112.672
-73.382
-134.814
88.9886
-63.2817
-79.4377
-154.977
-114.991
104.396
-47.8101
87.741
-249.565
-164.91
72.8516
-86.2643
-64.5485
-69.3706
-33.5473
106.587
88.8032
93.3957
108.388
-127.134
-202.792
-116.78
-148.445
92.6476
105.155
92.4447
-106.368
-109.22
-139.551
21.8486
92.6073
-95.1518
-222.937
85.0004
-73.1595
58.0263
-226.025
-131.512
-98.4284
89.3784
-141.143
-217.569
72.9152
-119.864
86.182
-97.9113
-150.875
-183.599
-211.267
-119.778
-131.852
-220.936
-130.51
-211.101
93.8087
29.9498
80.782
58.8989
88.8514
56.4833
58.3447
23.8868
-147.189
-246.566
79.4688
-243.765
4.70962
-120.129
-95.5499
-69.5866
-89.7822
66.8837
-87.6855
99.7792
-118.271
-149.467
-165.447
81.5491
56.1323
-99.3038
-127.326
90.5614
101.675
76.1961
86.7542
-180.027
113.67
12.0944
-180.202
86.5984
-178.454
-80.7327
-217.528
65.0616
-117.989
34.9327
-175.497
-123.17
7.98275
-148.375
-137.468
87.1166
-36.0374
46.1222
75.7162
82.4909
-159.693
-110.188
84.9917
-217.425
66.4815
-151.144
87.0391
-108.192
-141.318
-76.5524
-68.972
-66.0703
-137.089
80.2275
89.4551
-146.128
46.2499
89.0979
-100.989
-91.359
-94.4973
-124.927
-46.4911
96.1041
-130.395
-174.573
-30.8366
-104.418
-82.5958
-91.6391
-91.3311
-73.1107
-97.8713
-48.7018
75.117
-119.413
46.3051
-202.643
94.7028
-118.744
-115.707
105.118
-28.6294
-8.88676
8.37276
-63.052
-149.537
-248.609
89.6599
-188.055
-61.5693
-59.6893
76.4655
-84.8247
-165.451
-89.4445
-181.946
-124.462
-175.755
53.1848
84.3606
88.7034
39.1614
60.1237
-63.3384
-106.689
-165.886
85.9775
-173.085
-124.041
-43.6569
-171.177
86.3314
-158.625
-152.331
-76.2584
-203.885
-176.443
-229.47
87.7622
80.0359
94.6829
-235.511
-116.504
-69.1265
-100.592
-132.912
-142.701
-132.754
-113.919
-74.4078
-96.7301
-79.4174
-87.3514
-82.5716
-79.9554
-54.929
-103.336
-225.12
-141.055
-193.947
36.7053
-169.534
-227.099
-136.94
-127.364
-162.372
26.216
-166.822
-238.838
104.555
-0.866712
78.3088
78.2158
86.7167
-72.9548
-118.922
-108.014
-118.968
98.8571
81.9475
91.6841
-54.3277
-38.1746
87.1394
-190.198
-277.947
-142.797
-162.018
-148.338
-112.91
96.9515
-241.71
72.586
-97.029
-104.455
-129.063
-109.322
-21.5489
-31.0834
-52.1541
-82.8809
52.5223
-78.6371
-10.0951
12.6014
25.054
-41.9848
27.8116
34.1383
-62.6248
-44.6038
-54.2324
-2.86682
-112.805
-188.991
9.24595
-74.9769
-103.845
-112.932
-136.553
-142.24
-38.7628
-48.5183
-70.8733
-102.733
68.2785
70.4295
-240.29
-13.3604
71.2138
-53.3114
99.5405
83.0116
-57.6379
-51.5876
-81.107
-112.041
-92.3283
-125.769
-136.941
-106.716
56.0106
-56.0478
-44.0158
-92.1194
-164.436
-143.353
82.9699
41.8214
85.0809
-141.66
-221.289
-37.7991
-59.0329
-90.833
-69.1887
-65.2558
-54.068
-96.282
-165.312
77.3006
100.339
-219.227
78.0411
28.0518
44.0903
96.0065
61.7136
-113.976
-80.0803
-88.0602
-131.927
-49.1857
-112.093
-40.6496
88.2841
-112.473
-213.695
-220.565
60.35
86.6302
88.0941
-169.384
10.9032
-27.2151
-153.388
107.088
-18.5897
95.2629
-14.6799
-30.9175
-60.7425
-90.0507
-114.254
-80.4011
-89.7223
-114.679
81.1793
-234.556
83.3069
-237.344
88.3187
-146.637
-37.761
-63.5068
23.6001
-184.694
7.95625
-11.8101
-73.3742
-167.389
-96.5983
-53.1847
-103.6
-82.3817
-108.784
-76.6937
-66.8837
-100.697
-86.3025
-246.767
-87.6725
-41.9835
-58.2543
-90.0998
65.5968
-76.3206
-107.231
-118.003
-63.5119
-112.67
-35.1117
-89.2361
76.2473
-213.956
-98.8304
85.0564
-131.441
-59.1954
-102.848
-173.255
-21.5339
-53.1258
-91.2488
-60.062
-35.5997
-169.013
63.6575
-224.359
82.7841
78.951
86.608
65.4238
81.7284
89.0602
90.9234
86.4068
100.532
-8.2042
-23.4229
76.7161
62.7521
88.8744
89.2247
53.9757
70.902
48.0586
70.4604
94.5805
-188.859
-25.4894
-181.901
5.49785
-55.2349
-34.1755
-11.3495
-2.1418
17.3956
-14.9412
0.543451
-11.9229
-13.4812
-171.543
11.3876
-36.6216
-17.4093
2.01732
16.6789
-6.70824
-4.01685
8.29356
-178.191
-17.1381
80.74
-69.1018
-46.4475
-10.8744
-18.772
15.6893
-26.9395
-21.4454
-11.4644
101.468
10.1193
-49.7316
-29.9688
-4.34164
-15.8165
-8.08801
-20.097
-7.09923
-23.8074
96.2285
96.9678
73.2562
77.4123
94.8146
78.1769
-162.079
-44.7808
-29.8093
-114.688
-80.6775
-99.5262
21.7015
-13.7369
24.8662
31.5812
-15.4868
6.66103
-5.67017
53.9636
-50.9498
-82.7696
-12.656
-17.1776
-67.5003
26.4529
-60.3154
-38.3343
-56.844
-19.6715
33.0545
-37.5928
-33.8975
41.8803
-102.474
66.2608
65.0131
-19.1887
-47.8091
63.6705
-21.3062
-140.784
-173.027
75.5426
69.6361
-25.631
-16.7409
-11.9871
-20.7126
-35.9491
-57.3343
-12.4054
-29.3039
-13.9335
-107.898
-60.811
-101.794
-111.415
-113.833
-98.3328
95.9368
68.4339
64.6361
73.3349
65.9967
60.7973
-6.88106
-8.11259
-15.8393
-22.1827
-27.5344
22.6189
-84.1062
-94.9039
51.8762
75.6514
-88.7617
78.8773
-94.531
9.09321
-19.2204
-77.2908
-153.508
96.7555
-46.3869
-83.1747
-94.6532
-27.012
-65.222
-37.0295
68.3365
-170.662
-82.2143
-35.9706
-90.5989
101.152
57.0104
11.7802
-0.260624
84.2039
63.9999
-71.0281
106.62
57.2677
104.222
110.623
43.8547
102.042
-39.996
85.397
57.6515
-77.4062
-95.1058
-97.0362
102.049
73.7331
81.2591
100.112
82.0172
60.3639
72.9995
-55.2197
-147.535
60.1181
-26.256
-88.0493
-5.87283
42.4624
-56.961
-107.687
10.3275
90.0561
-68.6721
92.674
-147.017
69.8752
106.987
-124.457
-125.455
-58.442
-76.6076
-139.217
-134.042
67.7079
-45.2415
-141.16
-133.986
114.696
-59.7327
)
;
    }
    bottomExtWall
    {
        type            calculated;
        value           nonuniform List<scalar> 
300
(
169.522
168.994
169.201
169.506
169.817
169.897
169.47
167.254
169.858
170.925
181.567
169.415
172.937
153.107
192.502
167.196
180.26
189.325
173.993
167.361
145.072
182.962
176.973
173.801
176.481
172.807
174.114
170.874
169.922
169.539
189.471
184.203
167.678
148.149
148.5
162.12
173.838
167.997
187.717
155.747
186.391
180.7
144.048
168.951
168.493
201.593
149.901
170.783
180.726
180.65
154.604
173.674
173.48
197.317
143.235
168.874
171.304
184.108
153.863
172.523
160.77
200.181
162.779
162.539
157.833
175.517
184.687
155.413
156.524
170.443
179.197
127.594
170.919
150.757
193.965
197.853
177.386
145.917
151.611
169.421
158.13
192.419
168.113
169.566
174.735
145.107
157.155
201.032
182.075
150.746
179.207
152.567
160.856
170.193
158.753
195.648
166.848
157.306
176.613
176.448
184.32
198.063
175.242
178.345
163.164
161.265
146.106
176.299
157.673
156.979
163.336
181.548
153.273
169.009
176.95
186.637
181.495
146.33
156.822
182.854
182.855
182.477
147.128
182.242
165.433
185.134
160.296
155.109
151.632
153.59
173.533
170.685
173.806
195.9
194.138
182
221.195
164.306
148.068
169.875
182.378
161.324
171.663
152.769
153.906
173.097
176.568
206.646
144.462
163.709
160.9
152.99
176.457
176.6
165.213
177.14
173.442
162.059
173.706
176.105
161.734
169.381
133.805
157.11
186.789
164
143.108
172.045
181.522
149.472
149.916
168.158
143.041
148.842
199.993
161.911
224.942
213.044
180.472
163.076
160.342
190.878
139.681
210.969
182.756
153.03
168.871
159.464
151.201
152.615
156.373
178.497
190.433
154.397
208.225
163.32
171.931
175.532
167.6
177.459
136.901
151.879
173.653
178.686
181.875
162.854
176.528
203.13
152.964
143.02
162.521
143.091
162.673
165.464
164.664
176.384
170.278
193.052
179.396
144.275
147.628
165.255
196.083
173.038
196.31
193.125
192.447
194.565
150.033
144.989
189.215
191.727
198.932
139.772
152.803
189.85
157.958
146.849
151.87
150.324
166.175
168.709
156.591
151.204
162.912
218.897
178.796
185.991
194.563
182.903
166.751
153.061
161.219
157.128
177.903
154.879
209.739
168.092
152.957
160.839
159.884
160.991
149.012
174.63
169.059
170.307
179.09
187.964
165.137
165.454
177.712
163.344
200.808
160.368
175.268
159.736
150.931
156.823
194.035
153.973
203.791
163.345
158.374
194.724
211.069
182.618
179.841
182.834
188.755
167.833
149.525
223.447
200.312
180.375
195.669
185.132
161.191
184.755
182.661
186.232
)
;
    }
    core2
    {
        type            calculated;
        value           nonuniform List<scalar> 
118
(
-39.8646
39.9929
-1.71719
-309.063
-248.937
-220.331
-413.638
-238.163
-546.496
-271.987
-143.441
-249.326
-625.51
-260.274
-436.117
-96.6732
-94.8457
-23.9105
-547.654
-729.094
62.1542
-12.0325
19.7603
-300.278
-51.4516
-190.869
-471.035
-102.053
30.9434
-456.787
-403.227
-135.005
-95.2181
-148.037
-55.4996
-266.002
-227.068
53.8338
-154.594
-58.6762
-75.7539
-27.0269
9.80226
14.2309
5.02168
10.7623
-266.941
-76.836
57.7467
-72.4712
27.2383
-176.834
-260.482
-224.734
4.25694
-569.12
-494.78
15.5512
-503.504
-398.619
24.0207
-351.967
-104.782
-91.062
-134.525
-525.875
63.0997
-134.641
-183.484
-222.079
-452.797
-336.423
-363.787
-437.008
4.11599
-385.967
-309.005
-480.438
-263.021
-63.1806
11.9373
-51.5243
-485.584
-211.186
-358.173
-455.213
-69.7794
-539.694
22.8922
-572.011
-93.9699
-100.109
-102.075
-179.596
-131.788
-138.518
0.764841
-140.636
-156.047
9.2854
-231.188
-68.6127
-160.546
-97.4542
-84.7321
-81.9351
-128.14
-230.032
-327.298
-74.1937
-63.7233
-91.516
-33.529
-95.3905
37.3941
26.9099
-57.4648
-242.707
)
;
    }
    core1
    {
        type            calculated;
        value           nonuniform List<scalar> 
148
(
-394.281
-629.051
-580.448
-554.698
-329.896
-626.064
-752.581
-672.664
-233.763
-620.173
-527.217
-683.244
-1346.31
-505.736
-1228.63
-398.701
-588.093
-640.429
-471.468
-522.776
-252.124
-400.662
-449.913
-707.68
-640.708
-547.472
-585.32
-298.128
-439.714
-832.945
-600.688
-599.456
-514.874
-451.399
-523.607
-479.689
-622.781
-431.891
-210.116
-292.058
-498.205
-609.753
-1086.16
-541.291
-735.087
-273.697
-703.202
-601.754
-441.566
-518.008
-598.041
-431.44
-383.753
-379.877
-794.939
-495.32
-442.003
-571.474
-1016.35
-586.202
-955.712
-513.371
-323.059
-226.36
-332.991
-1073.84
-515.339
-456.31
-368.378
-634.354
-1185.51
-812.43
-370.284
-618.182
-418.749
-548.186
-344.671
-731.475
-594.775
-210.173
-479.177
-955.818
-528.133
-511.162
-316.464
-1037.75
-1059.79
-512.356
-493.482
-366.793
-395.297
-422.779
-255.943
-620.436
-452.116
-514.208
-300.615
-500.965
-1171.75
-535.617
-415.451
-486.011
-322.531
-185.264
-551.611
-676.273
-26.8639
-135.06
-170.541
-164.696
-216.85
-241.332
-182.061
-179.338
-129.255
-114.376
-162.417
-142.701
-96.5644
-194.231
-187.642
-214.002
-698.244
-259.587
-61.9009
-222.59
-200.742
-163.987
-251.727
-146.292
-297.341
-122.861
-72.8154
-45.3487
-106.131
-61.251
-50.4699
-28.3582
-190.009
-76.2054
-253.285
-237.819
-258.28
-89.7396
-117.515
-90.0987
-73.1728
-109.857
)
;
    }
    bayInletL
    {
        type            calculated;
        value           nonuniform List<scalar> 9(442.802 413.489 411.676 409.626 409.077 444.112 410.452 440.987 445.241);
    }
    bayInletR
    {
        type            calculated;
        value           nonuniform List<scalar> 9(494.477 499.876 496.713 493.989 498.774 491.416 493.05 501.617 495.895);
    }
    cabOutletL
    {
        type            calculated;
        value           nonuniform List<scalar> 4(67.7295 90.2579 124.571 137.23);
    }
    cabOutletR
    {
        type            calculated;
        value           nonuniform List<scalar> 4(154.831 150.769 132.235 102.208);
    }
    bayOutletL
    {
        type            calculated;
        value           nonuniform List<scalar> 5(446.068 360.501 343.485 338.167 327.987);
    }
    bayOutletR
    {
        type            calculated;
        value           nonuniform List<scalar> 5(334.248 356.838 369.417 386.843 464.313);
    }
    defaultFaces
    {
        type            empty;
    }
}


// ************************************************************************* //
