/*--------------------------------*- C++ -*----------------------------------*\
| =========                 |                                                 |
| \\      /  F ield         | OpenFOAM Extend Project: Open source CFD        |
|  \\    /   O peration     | Version:  1.6-ext                               |
|   \\  /    A nd           | Web:      www.extend-project.de                 |
|    \\/     M anipulation  |                                                 |
\*---------------------------------------------------------------------------*/
FoamFile
{
    version     2.0;
    format      ascii;
    class       volScalarField;
    location    "2000";
    object      T;
}
// * * * * * * * * * * * * * * * * * * * * * * * * * * * * * * * * * * * * * //

dimensions      [0 0 0 1 0 0 0];

internalField   nonuniform List<scalar> 
26307
(
286.678
290.848
292.062
301.577
289.23
288.713
302.61
287.632
295.549
286.696
287.492
288.352
290.063
292.852
299.652
293.676
287.962
300.616
295.621
287.739
287.034
287.121
300.219
302.288
292.445
287.679
287.174
300.283
288.75
287.01
294.941
287.245
297.882
288.901
288.188
287.734
286.949
294.943
292.286
287.298
295.993
300.469
287.069
297.552
288.877
289.699
290.527
286.888
287.068
294.916
293.503
291.251
288.423
292.142
295.178
287.833
289.775
289.68
286.633
291.719
290.164
296.573
300.73
302.645
287.748
299.421
286.9
292.975
288.665
287.397
287.303
293.356
286.86
301.741
302.455
286.994
288.64
289.134
287.141
299.267
298.045
286.871
307.667
287.294
286.862
286.769
288.834
287.916
286.974
300.383
286.545
297.121
295.033
293.366
293.902
287.596
293.482
296.771
287.395
290
302.879
294.962
286.72
286.641
288.468
297.796
295.543
289.616
286.716
287.73
287.012
298.411
291.844
287.11
301.08
305.799
299.983
288.42
287.132
286.703
286.982
289.023
291.608
293.473
292.056
291.984
287.334
289.12
302.665
294.109
293.868
297.275
287.371
288.527
288.014
287.904
286.905
286.889
287.625
289.474
286.723
288.287
288.358
296.922
287.019
287.327
286.989
289.22
294.753
291.685
287.017
288.962
289.047
287.104
287.253
287.422
291.557
289.111
288.689
293.234
288.354
287.541
288.211
287.868
286.566
287.684
288.014
287.785
289.726
287.262
286.728
287.071
286.993
287.846
299.819
290.828
297.762
286.651
286.669
287.18
288.164
288.853
286.843
293.176
290.088
287.727
293.099
293.269
301.039
288.708
288.751
292.883
300.184
286.608
291.244
287.894
300.163
287.161
288.7
286.931
307.597
286.705
288.669
291.61
291.112
287.494
293.433
300.198
287.102
296.713
287.648
287.631
288.227
292.435
290.36
287.076
288.343
287.078
287.147
300.418
287.564
292.026
297.899
287.105
292.338
286.762
302.652
287.051
286.997
290.485
287.045
288.048
302.674
293.103
287.165
289.069
287.691
292.831
293.533
287.631
301.549
296.023
292.003
286.993
287.591
288.403
287.841
286.939
287.593
287.099
286.827
287.005
296.458
295.152
293.262
295.547
293.263
291.448
303.879
287.029
286.728
298.573
293.847
291.233
286.708
295.547
287.566
286.578
287.875
290.829
286.728
287.134
287.698
289.235
286.762
297.305
288.542
297.058
292.493
293.297
288.051
287.622
287.797
295.114
289.145
287.226
288.283
295.399
294.062
287.019
289.414
297.637
286.761
286.592
286.688
287.055
289.283
289.386
286.452
298.012
287.074
288.383
286.933
286.506
295.39
293.79
294.945
288.988
288.761
299.396
286.933
297.633
287.361
291.85
293.189
300.313
302.811
289.092
287.081
294.146
291.806
287.111
288.829
288.007
289.41
297.092
294.023
287.614
286.87
287.6
286.877
292.516
296.032
286.541
287.861
293.269
286.597
290.204
286.809
287.653
301.228
301.631
286.788
286.838
290.502
286.633
287.688
287.129
287.17
287.072
286.361
298.544
302.526
291.595
287.133
286.775
289.881
301.15
302.899
287.777
288.381
288.264
287.769
289.397
295.315
293.433
284.783
287.76
291.229
287.276
287.283
287.773
290.415
287.335
287.123
286.959
286.657
287
287.869
295.28
287.134
287.912
299.607
303.193
301.642
287.261
287.006
286.909
287.162
286.546
287.662
286.434
293.32
294.725
287.337
287.059
298.267
295.753
292.961
296.183
296.092
297.678
292.2
287.817
288.614
287.122
288.033
296.027
286.627
289.147
295.38
296.382
286.553
286.338
289.997
289.21
293.582
301.541
302.839
287.788
299.178
292.312
292.854
301.91
287.859
286.935
289.107
289.452
286.786
295.721
286.981
284.05
287.714
286.799
294.611
287.411
293.119
287.825
286.298
286.441
291.048
287.363
294.695
290.501
286.744
289.838
288.866
286.548
292.122
287.037
286.968
294.022
287.82
291.503
286.664
287.762
287.83
287.674
289.984
298.03
288.491
299.842
292.573
289.038
288.148
286.838
293.478
303.379
299.473
291.781
286.931
289.224
286.365
286.759
287.42
287.89
288.34
290.763
289.184
293.145
287.012
290.472
301.908
288.257
292.519
290.503
286.51
294.735
287.085
287.363
287.539
287.186
287.864
289.101
292.259
287.759
286.853
286.652
300.296
295.32
286.702
287.812
287.868
301.23
287.087
287.486
286.549
287.705
287.836
287.828
296.567
299.411
293.221
293.927
287.366
291.703
293.768
287.212
287.414
288.821
297.339
288.84
287.207
301.919
291.056
293.32
301.567
286.655
286.946
299.475
288.505
286.493
287.339
287.649
294.514
286.777
302.004
291.101
287.544
296.098
287.828
286.584
287.467
286.924
292.083
287.136
305.308
288.713
289.32
287.669
296.786
286.951
294.133
290.405
289.148
287.595
288.028
288.29
287.957
296.8
290.438
288.933
287.476
288.616
288.489
287.109
301.089
290.807
287.727
287.793
294.314
292.881
291.486
294.568
298.686
289.484
298.067
287.623
286.287
297.916
287.793
287.834
299.496
296.897
295.06
286.706
287.372
286.989
289.007
292.831
288.772
287.742
295.481
297.493
291.863
287.044
287.092
287.877
294.853
296.432
287.527
286.8
287.786
299.316
286.613
289.275
295.838
309.27
295.968
296.756
302.303
299.733
289.94
287.999
287.158
287.848
287.68
286.879
287.84
289.527
286.55
287.039
301.874
286.834
287.765
286.638
287.547
287.909
296.076
292.734
287.927
286.997
298.546
287.797
287.491
298.818
286.897
288.713
289.188
292.032
286.716
287.654
286.907
289.467
287.867
286.396
287.744
286.808
287.627
288.781
286.834
287.83
288.67
302.199
288.231
287.852
286.826
297.875
287.384
296.429
286.654
300.283
286.582
300.368
287.752
287.933
288.361
294.373
296.394
286.657
292.814
299.934
301.773
296.58
288.506
289.32
288.613
287.42
291.167
287.212
287.274
287.538
295.065
289.009
289.79
290.919
294.519
287.902
286.211
287.738
287.78
297.842
286.85
289.175
288.107
291.156
300.355
296.561
289.511
292.665
287.145
298.35
287.777
288.898
301.879
291.769
287.283
287.472
286.824
289.832
287.603
287.14
287.958
292.326
287.839
287.657
290.93
286.247
287.989
294.737
287.39
292.412
287.431
288.381
287.428
294.588
289.062
287.867
287.611
300.699
287.735
294.715
288.135
286.307
286.742
288.494
287.032
287.479
287.23
291.865
286.902
294.552
287.365
287.545
287.43
287.595
287.907
293.065
290.056
289.583
297.331
287.506
287.83
287.801
287.138
291.215
289.606
290.309
287.727
302.531
287.905
286.847
306.076
295.559
297.673
288.943
287.845
288.264
286.713
287.037
287.969
287.814
292.606
289.435
291.463
290.429
300.272
287.637
290.667
287.305
296.539
289.57
298.948
288.56
297.836
292.252
294.063
293.641
287.38
287.202
289.842
300.957
287.656
296.36
287.97
293.497
287.937
287.744
289.976
288.98
286.597
285.456
288.521
287.341
287.756
292.45
287.693
299.845
289.095
288.353
289.53
292.49
286.913
285.176
287.435
287.76
287.568
286.57
287.089
294.232
287.279
287.036
291.694
293.732
295.738
286.619
289.813
297.769
296.924
290.787
293.598
287.431
288.953
287.28
286.904
287.716
298.369
287.047
287.766
293.128
298.569
288.385
287.241
301.817
287.779
287.044
287.529
289.167
287.769
287.298
289.413
287.718
287.564
286.71
291.103
286.944
286.577
293.231
294.249
289.391
289.444
287.758
286.658
303.704
300.47
286.987
287.152
301.215
286.31
295.375
297.771
300.296
294.397
293.709
294.016
293.515
295.422
290.313
286.924
286.965
303.246
288.984
292.764
289.657
286.787
286.911
287.808
290.591
289.79
293.445
289.417
302.885
287.781
295.943
293.825
286.947
286.677
288.325
286.967
289.164
287.298
287.516
301.023
286.56
287.589
293.128
294.906
288.187
287.377
286.384
300.315
300.38
287.531
291.967
296.734
295.296
289.144
288.944
287.049
287.662
294.756
286.882
289.274
296.41
287.664
287.143
286.743
296.431
287.635
289.417
289.219
290.16
287.556
287.922
286.22
287.814
300.044
294.28
289.814
286.971
290.253
286.867
290.992
288.774
293.131
292.221
287.278
295.479
293.821
287.978
287.804
297.798
286.549
287.424
286.317
287.119
293.417
287.064
291.799
286.79
293.118
290.135
287.304
286.681
287.265
289.712
289.222
289.852
288.101
291.206
289.456
292.39
287.622
287.389
289.983
291.097
292.77
294.919
295.039
296.535
292.973
287.05
287.246
287.877
287.65
288.843
301.027
300.218
286.951
289.015
288.323
288.248
288.579
286.739
294.088
286.738
287.021
287.881
287.64
286.235
288.096
286.822
289.128
293.644
287.711
301.13
292.666
287.055
298.18
289.229
289.119
287.987
287.599
290.952
297.775
300.287
287.626
306.475
293.211
290.638
293.855
296.201
287.734
287.486
286.702
292.938
297.922
287.913
287.757
289.689
286.755
291.503
289.339
286.962
297.951
299.235
288.378
302.681
287.477
289.611
287.789
287.518
294.923
288.953
289.493
287.101
289.633
287.44
287.512
294.495
289.86
291.275
289.597
287.418
286.874
286.762
287.677
287.565
287.954
286.923
303.151
286.746
294.993
287.067
292.714
287.191
294.88
287.08
287.828
288.781
287.842
287.587
286.554
287.259
292.736
288.654
286.292
302.46
291.797
289.576
287.217
299.782
294.462
298.91
287.883
288.773
290.879
303.132
300.113
295.028
292.46
287.63
287.27
294.673
288.046
290.087
287.72
288.941
293.087
286.792
287.675
287.238
288.277
300.218
286.989
289.922
289.767
287.377
292.142
289.27
287.794
293.425
288.409
288.872
286.629
287.376
287.031
287.415
289.032
294.373
295.938
293.441
287.073
289.577
287.423
288.906
287.825
287.367
288.871
295.624
287.049
289.322
300.133
287.02
297.309
286.86
290.679
290.998
292.628
293.974
294.115
287.79
300.016
287.135
287.716
293.292
289.299
288.399
290.423
288.368
300.698
289.043
287.407
295.422
287.795
288.721
289.256
292.353
287.518
290.216
289.222
292.03
288.782
287.646
290.081
291.612
287.6
287.904
286.852
287.569
287.297
287.468
292.088
286.914
294.446
294.63
286.925
288.147
301.55
291.246
287.8
284.013
293.664
287.651
287.719
287.419
287.555
286.627
290.366
288.03
287.629
287.903
287.377
291.999
287.421
302.07
301.262
294.867
287.609
287.195
289.945
298.385
287.815
288.089
287.75
286.655
288.424
288.557
290.155
284.98
287.05
286.961
299.183
301.655
288.235
287.685
287.249
295.842
294.128
291.972
294.512
293.544
291.986
300.53
290.06
296.153
300.399
294.754
287.27
287.149
286.89
287.429
296.76
294.205
302.036
289.428
294.396
286.569
288.018
295.409
287.757
288.978
288.954
286.639
295.115
289.17
287.498
286.776
294.258
287.129
294.088
291.484
292.169
288.866
302.32
288.435
288.987
299.478
287.819
286.928
288.59
287.037
287.559
292.091
289.158
290.282
287.624
300.679
292.871
287.755
299.787
287.116
288.482
287.323
295.458
294.109
306.715
291.727
292.662
289.757
297.694
300.709
286.987
287.557
287.427
288.661
295.276
290.227
295.158
287.796
287.413
288.416
287.359
287.964
287.095
287.616
287.489
294.74
288.688
286.189
287.567
288.553
287.204
287.705
286.901
286.684
291.054
289.153
288.685
287.653
292.147
289.695
287.181
294.522
289.801
288.609
289.057
299.377
292.386
294.025
292.279
295.453
287.442
289.726
297.688
288.102
288.975
287.124
287.658
287.457
287.689
294.372
301.028
299.06
289.033
287.726
287.884
295.728
291.57
289.858
294.075
290.96
287.044
287.934
292.337
287.556
297.512
287.995
287.466
297.023
301.288
287.596
287.258
287.108
286.583
286.758
293.946
286.616
292.954
286.885
296.684
288.529
287.471
292.386
288.034
287.666
288.31
293.305
287.217
293.208
298.757
295.418
286.967
288.533
286.601
285.395
287.479
287.219
287.725
295.399
290.32
286.937
294.273
287.959
287.006
289.724
293.601
288.773
292.338
287.149
288.887
291.606
290.905
295.365
289.778
288.241
287.222
290.049
299.313
286.164
293.528
294.067
286.456
295.142
288.308
297.873
293.657
295.911
292.93
288.115
298.147
290.218
288.897
289.065
287.461
287.286
298.716
289.595
294.034
292.85
290.556
289.282
287.274
287.831
292.45
287.392
288.749
288.754
298.507
291.612
286.738
295.199
293.11
287.321
291.029
295.202
287.604
300.044
287.181
289.646
288.526
287.446
286.604
294.773
289.447
295.479
299.525
289.698
289.655
287.909
287.901
287.472
287.19
294.263
287.478
301.89
299.185
289.139
292.608
301.626
286.543
287.035
287.238
302.165
300.575
294.413
286.543
286.808
288.552
292.571
292.813
288.782
307.429
287.827
287.249
292.125
295.208
287.639
292.2
287.515
291.941
293.579
298.753
301.818
289.117
289.929
288.018
295.091
289.223
287.389
287.625
286.744
287.002
287.688
292.531
289.032
287.097
297.807
287.146
287.909
287.483
293.411
289.485
294.63
289.353
295.875
288.502
290.773
291.289
288.645
287.014
292.998
287.165
289.686
287.462
301.962
289.167
288.881
287.264
299.46
286.56
287.426
293.534
294.548
292.421
287.494
287.988
293.215
291.459
295.241
287.235
292.042
287.728
289.576
286.841
286.967
287
288.597
287.011
286.936
287.592
302.173
286.581
286.929
294.889
287.945
286.731
292.997
298.485
287.901
287.103
300.711
293.293
287.757
286.62
302.15
287.081
289.08
288.689
297.14
302.027
286.603
291.678
287.521
286.857
309.116
288.664
290.289
293.373
287.564
287.468
287.67
284.857
290.934
301.951
298.636
294.798
300.125
291.827
294.202
296.852
288.633
288.784
294.218
287.998
287.583
289.001
297.303
287.574
290.54
287.821
288.048
293.351
292.013
288.111
289.182
290.367
292.683
291.39
295.235
286.868
287.155
287.86
287.653
288.94
287.793
287.5
295.095
287.85
287.458
289.114
287.274
286.986
287.464
299.457
286.755
289.461
287.529
291.035
286.401
288.938
287.531
290.153
288.229
287.929
288.043
299.269
295.74
288.851
296.178
287.312
287.293
296.207
288.544
289.873
286.733
291.397
295.14
290.317
286.99
288.142
288.408
288.137
292.367
293.057
296.526
292.263
290.132
303.565
286.779
298.441
286.993
291.018
291.428
296.631
301.996
287.091
290.097
288.805
286.777
286.96
292.415
287.205
289.097
287.564
287.216
299.241
301.121
287.523
298.505
288.613
287.864
287.273
288.493
287.532
288.019
287.648
297.248
294.853
287.031
291.099
288.446
293.347
299.566
288.685
286.812
302.646
287.113
301.404
286.987
287.44
286.727
288.521
288.102
287.764
298.754
289.191
300.313
289.307
303.544
298.106
287.763
289.673
287.862
286.795
299.148
299.195
295.465
287.287
288.411
287.652
287.715
299.852
286.679
287.776
287.253
289.847
297.567
299.55
289.16
293.449
290.168
289.006
290.354
299.821
287.715
287.205
288.446
288.963
297.946
299.487
287.43
300.581
287.086
292.663
288.063
287.624
301.201
298.496
289.042
288.583
286.668
290.502
287.345
290.487
298.969
298.067
293.913
287.073
302.032
300.382
288.94
293.824
287.527
287.621
294.092
293.365
296.65
299.324
296.395
296.953
302.763
300.081
287.828
286.802
287.069
287.428
298.528
295.279
291.84
291.676
287.784
300.591
297.653
289.187
293.172
295.074
287.87
288.282
294.001
296.379
292.55
288.55
287.938
287.927
291.43
289.398
288.697
304.034
287.726
287.043
288.58
287.25
299.898
295.239
287.547
288.013
288.367
286.618
288.172
291.901
294.663
287.468
287.459
286.693
292.985
293.927
288.703
287.862
287.352
295.973
295.504
305.603
291.353
292.903
287.047
287.483
286.808
290.033
302.906
288.307
299.204
287.578
293.944
287.511
286.971
295.068
289.587
288.164
291.333
295.247
287.986
286.755
288.849
293.784
305.184
296.596
294.724
295.174
293.759
298.955
291.258
287.705
300.186
287.942
295.887
289.17
300.162
302.447
288.708
287.651
289.468
289.261
289.176
292.794
287.317
298.696
286.892
290.88
292.275
287.433
287.959
287.544
293.034
290.789
293.236
297.87
295.749
294.492
292.158
290.678
292.071
287.35
298.035
286.184
287.5
287.445
287.02
288.531
293.865
287.779
293.638
287.195
286.563
292.294
291.862
296.924
295.338
287.864
287.59
293.769
286.649
287.831
287.513
287.695
304.143
288.001
295.516
291.471
286.705
309.304
286.93
293.724
287.278
284.049
286.568
291.584
302.252
288.179
287.728
287.249
298.147
297.364
300.476
293.006
294.572
296.983
287.591
297.763
297.871
286.558
292.233
286.118
296.428
286.696
286.67
287.344
286.93
298.079
284.533
287.674
299.132
301.991
292.392
287.551
298.387
290.745
287.962
294.872
287.701
289.143
286.661
292.552
292.292
288.84
288.415
306.316
287.562
287.2
300.455
290.003
292.833
295.182
287.966
293.103
298.56
287.423
286.746
287.211
287.373
290.053
288.901
289.657
294.292
293.078
287.057
288.982
294.78
289.235
287.491
287.911
288.744
294.562
292.778
292.363
295.922
298.713
292.266
287.733
293.801
286.86
288.337
290.862
289.971
287.448
300.243
289.929
291.956
294.886
293.064
287.009
287.784
287.933
286.572
292.262
289.927
287.947
287.99
287.588
297.328
289.965
286.712
286.819
290.579
300.189
294.901
294.238
287.084
294.172
290.294
289.406
288.474
286.91
287.49
286.354
287.468
301.02
300.455
288.615
287.314
294.883
294.854
291.929
287.71
300.969
295.48
287.655
286.975
287.813
286.828
299.176
292.476
286.707
298.243
297.48
288.006
288.096
288.205
287.362
308.34
287.223
286.923
294.958
286.676
289.283
287.511
289.204
286.974
296.531
286.941
290.708
298.181
288.145
292.633
290.41
292.652
299.883
288.088
287.345
299.829
287.209
288.513
288.685
290.838
290.796
286.785
301.68
287.56
289.461
287.125
287.962
293.07
287.146
286.558
287.324
288.208
286.563
288.062
287.645
293.182
293.808
287.334
300.906
297.133
288.789
300.586
287.77
292.258
288.492
288.566
291.838
287.932
288.008
294.727
293.415
286.779
289.723
293.415
298.295
288.903
298.375
292.837
287.163
297.252
288.146
287.939
292.794
298.417
292.471
300.608
286.631
293.628
289.306
288.039
287.296
292.136
288.51
287.565
288.682
287.715
297.574
291.321
291.593
291.657
293.114
301.569
287.057
288.216
286.985
289.725
291.337
290.576
287.25
288.433
286.758
286.931
287.999
287.619
289.504
287.54
296.833
292.526
288.355
287.613
288.001
293.072
292.794
292.255
302.924
287.507
286.818
295.812
303.916
287.648
287.038
286.972
305.488
287.173
289.423
286.654
295.403
289.959
284.032
300.332
289.945
293.542
299.367
300.468
287.103
301.638
286.862
299.063
287.729
290.172
286.463
287.176
303.914
290.45
290.38
300.328
290.21
290.351
291.731
291.619
301.049
297.847
286.758
287.792
288.487
295.66
302.581
286.943
287.955
287.639
291.732
286.811
297.224
287.461
288.003
287.495
291.375
286.62
290.475
287.374
286.473
293.977
302.376
287.727
292.334
286.81
286.608
292.377
289.371
290.553
288.09
287.56
287.742
290.987
302.349
288.686
288.162
287.885
293.565
287.047
292.452
286.808
287.63
289.978
287.886
288.116
292.404
300.516
289.286
293.144
289.484
287.33
287.842
294.151
287.202
287.04
288.776
295.327
298.985
287.219
286.993
286.77
289.965
286.603
287.492
301.35
288.317
291.573
287.234
293.526
302.886
287.738
286.678
299.567
300.321
301.711
288.14
287.864
287.575
295.503
288.726
287.38
287.5
294.665
287.224
289.035
300.271
296.11
296.195
298.866
288.417
291.294
291.801
290.526
287.123
297.824
286.677
288.327
287.563
305.679
301.972
299.256
287.326
288.267
286.794
287.592
295.199
287.559
289.26
289.082
286.784
288.938
295.314
288.945
293.642
287.797
286.708
287.895
286.389
286.551
295.893
289.25
287.984
287.462
287.818
286.86
297.721
297.575
287.398
294.169
286.685
292.202
293.753
294.115
295.567
293.256
293.284
286.723
287.575
295.486
294.592
298.131
300.689
288.009
287.897
294.815
287.132
287.739
288.003
288.395
295.482
284.775
287.371
287.132
287.189
290.842
286.86
290.854
301.408
286.864
287.325
298.747
287.528
287.295
307.772
287.165
286.556
287.442
288.389
292.914
287.521
287.098
286.16
286.93
286.654
292.355
288.044
287.676
292.587
287.659
291.305
287.542
286.633
298.247
288.074
292.548
297.752
300.083
286.899
287.657
287.157
292.628
289.523
287.172
287.714
287.233
286.698
286.809
301.964
287.307
287.66
300.398
297.738
289.692
287.444
287.914
287.181
297.718
298.832
286.595
303.229
288.047
300.407
288.742
287.644
287.644
287.466
287.473
286.695
291.013
293.644
292.982
294.894
299.197
301.369
289.026
289.13
287.864
287.629
287.016
287.966
288.535
297.632
288.516
287.516
290.509
288.845
301.72
300.398
308.296
287.015
287.162
286.804
291.313
286.775
289.523
287.58
286.933
288.102
286.412
292.442
287.111
293.341
290.219
289.178
286.691
298.189
286.198
293.039
293.097
298.337
295.861
303.358
301.537
287.178
290.177
287.046
288.123
291.296
286.951
289.248
295.836
288.083
298.647
287.678
298.228
287.203
288.236
287.5
288.544
287.852
287.246
294.709
287.482
292.251
292.578
286.716
293.577
291.429
290.163
290.219
300.188
287.489
301.702
286.96
288.214
301.511
292.324
294.952
287.295
300.853
287.492
302.011
288.309
286.592
288.628
287.366
301.562
287.327
290.282
287.353
293.698
293.063
298.668
296.065
292.552
292.625
291.014
291.058
288.131
293.713
290.88
288.27
295.362
286.589
293.72
293.012
302.663
289.345
287.528
287.613
297.818
294.126
287.893
300.752
290.825
292.685
286.685
298.299
301.854
287.168
295.49
296.974
287.348
290.996
295.295
287.835
299.105
287.674
295.946
287.512
286.828
289.24
298.363
291.12
293.004
296.611
299.556
293.147
294.944
293.833
288.817
295.398
287.744
287.595
287.476
286.9
287.636
286.565
291.144
286.783
294.559
293.134
287.546
288.166
292.103
287.44
292.816
294.365
295.116
294.745
292.553
297.031
293.381
287.004
292.379
287.58
293.679
287.08
285.938
288.098
286.987
289.992
286.709
288.043
292.784
295.043
296.723
294.073
292.197
290.679
287.41
287.615
295.011
290.75
292.399
290.662
286.822
286.742
287.499
289.495
295.342
288.56
289.231
288.458
287.431
292.022
288.632
286.915
296.674
287.889
287.553
287.147
287.515
288.351
287.06
287.008
287.87
301.591
288.176
297.804
293.491
294.251
286.398
287.059
287.085
288.302
286.748
286.928
286.935
303.464
286.659
287.865
289.832
293.207
286.856
294.307
287.562
286.73
286.852
292.35
286.803
287.791
287.492
301.713
293.991
287.692
286.637
286.97
302.656
286.183
287.698
295.066
288.45
291.338
291.706
289.572
290.598
289.544
286.493
285.952
286.71
298.243
295.451
293.193
287.999
287.666
290.409
299.217
286.752
285.917
299.856
291.117
286.633
299.776
293.548
298.182
294.678
298.178
287.006
288.096
299.253
287.555
287.078
292.848
293.306
298.746
296.006
302.103
292.614
296.137
286.875
293.434
300.067
287.372
286.652
296.252
293.701
286.666
287.035
287.333
287.208
287.248
289.556
286.741
297.794
288.118
307.142
288.105
300.471
286.887
289.77
288.338
294.056
286.759
286.946
300.454
296.305
289.062
286.777
301.105
290.828
302.351
287.042
286.944
287.009
286.91
288.332
288.642
287.965
288.189
287.766
287.578
286.879
288.405
287.066
295.584
286.978
286.974
286.834
299.667
286.942
295.282
287.429
301.882
288.194
287.905
299.615
289.744
286.632
287.152
287.18
286.95
289.664
287.849
295.687
298.526
288.233
286.783
287.76
295.686
288.234
295.119
286.892
296.68
287.061
288.739
292.403
290.023
294.243
297.306
292.479
288.301
287.64
300.406
302.353
287.476
291.543
299.838
297.76
289.556
287.966
294.84
293.94
297.387
287.617
297.511
300.322
294.988
294.165
285.335
288.722
297.226
290.378
286.297
292.753
295.907
286.896
288.399
288.879
290.737
295.237
293.992
292.146
288.233
286.957
287.631
287.663
287.579
286.674
294.592
288.036
297.59
286.563
287.145
288.029
287.949
286.609
300.533
286.847
294.536
304.772
300.162
292.112
293.065
292.786
300.367
287.933
288.519
288.095
287.298
287.168
288.214
287.17
286.15
288.628
299.42
292.162
294.619
289.351
293.103
287.775
302.371
300.15
293.129
286.626
292.578
300.809
300.318
303.039
305.445
286.848
287.999
292.339
286.555
287.679
300.201
288.378
293.571
294.049
288.353
287.165
290.682
295.672
286.656
292.367
287.069
292.572
301.665
289.341
301.311
288.23
293.6
289.565
292.446
290.035
287.032
289.155
286.654
288.366
288.068
299.053
294.743
288.229
286.769
296.356
295.858
292.426
287.933
300.248
288.179
287.695
289.923
287.723
299.138
294.939
287.277
287.524
288.223
294.491
287.201
289.384
296.109
297.047
294.522
297.875
295.075
292.872
286.953
295.801
288.649
286.68
301.348
298.634
295.467
287.084
292.469
286.887
287.008
301.764
297.472
287.756
292.315
286.689
288.105
291.368
303.083
289.467
300.438
287.546
288.044
287.117
287.107
300.57
288.206
287.728
293.282
287.674
287.434
287.91
290.739
286.236
303.22
286.584
286.949
287.492
285.92
286.777
305.478
286.719
289.413
287.149
287.621
296.734
290.242
295.675
288.654
294.918
297.141
287.857
294.093
293.084
286.738
286.788
289.845
287.398
290.616
288.177
288.255
301.726
288.599
286.995
287.125
305.267
286.127
298.871
286.591
287.702
288.886
286.783
288.738
286.714
290.597
288.686
287.297
296.89
287.827
287.469
299.369
286.943
288.364
290.371
289.597
286.647
290.869
287.254
290.597
289.277
289.606
290.394
297.298
287.11
301.698
287.042
288.651
291.209
293.666
291.808
295.297
294.345
290.417
287.641
287.436
285.981
286.046
288.273
294.6
293.082
287.496
288.409
287.569
287.763
286.504
287.386
287.501
287.211
293.883
301.356
287.95
285.885
288.684
298.547
286.795
287.535
287.707
287.556
292.709
287.042
287.705
287.905
284.718
293.296
289.211
292.918
294.688
287.261
300.84
288.07
302.935
292.827
287.604
288.647
294.715
290.294
285.972
292.758
297.939
287.604
286.681
288.301
300.475
299.631
292.25
287.404
288.965
301.05
287.986
288.014
287.064
287.051
287.822
297.089
286.739
287.022
286.082
286.487
287.903
289.079
287.732
287.195
287.381
287.488
300.611
297.599
302.612
300.858
288.775
291.658
297.134
293.891
300.165
297.606
286.76
294.833
299.634
286.368
287.157
286.633
298.414
286.617
287.439
287.533
287.04
287.578
303.237
299.728
286.682
295.884
292.27
287.363
287.942
294.037
288.662
290.93
287.208
288.714
293.363
286.462
289.145
286.573
285.935
289.183
287.384
286.83
290.454
289.041
297.866
286.782
288.05
299.799
298.081
288.906
286.765
290.744
290.138
288.674
287.658
287.466
287.121
287.439
286.565
287.632
287.665
300.6
288.717
303.781
287.387
303.07
285.283
287.916
289.316
292.897
288.59
293.102
297.831
290.042
288.211
288.384
295.312
297.657
291.953
299.723
289.425
292.754
289.271
291.891
294.924
295.097
287.353
287.625
287.759
287.29
289.241
287.884
289.326
295.41
299.84
288.167
287.303
287.438
298.712
286.839
288.017
287.609
290.168
289.623
287.273
298.325
299.505
289.456
295.719
288.089
288.328
287.31
286.333
287.317
293.188
288.433
294.722
289.133
288.118
287.201
292.84
286.522
288.337
287.203
287.511
287.251
295.471
296.177
287.97
288.739
287.416
287.048
286.228
289.375
288.325
286.938
287.514
299.472
288.421
287.404
290.356
299.116
288.935
287.004
290.914
287.548
287.684
302.65
295.135
287.287
285.943
289.042
308.208
290.045
287.448
287.684
286.244
287.371
302.715
289.055
294.428
295.771
287.346
287.301
298.613
299.911
286.645
289.768
287.337
304.805
287.804
287.627
288.964
289.497
287.492
295.572
288.083
287.118
287.673
287.021
287.132
293.187
302.143
300.902
287.544
287.389
285.316
285.839
289.39
301.55
286.84
294.713
291.852
287.204
287.562
287.424
299.937
297.617
296.293
306.654
296.014
285.798
288.281
291.147
288.813
285.971
287.287
287.851
293.056
287.984
289.072
290.591
301.954
287.368
286.864
285.902
286.707
286.778
289.528
288.832
286.99
286.922
287.767
292.753
287.1
287.52
287.133
300.368
287.122
286.803
287.945
289.934
300.473
292.595
287.042
290.167
297.59
299.904
286.686
287.973
291.013
286.684
291.215
285.031
287.506
289.511
287.14
287.139
301.389
289.092
295.711
287.047
286.848
286.786
300.658
286.933
288.078
287.521
287.613
300.168
286.785
301.037
287.792
299.479
287.217
295.659
287.128
290.343
288.193
288.221
295.988
287.525
302.672
287.703
301.014
287.312
292.961
296.345
287.018
290.952
292.011
287.484
288.699
287.487
287.51
286.862
287.022
292.839
293.178
287.61
286.796
298.272
299.373
287.93
288.054
295.376
287.16
297.245
288.242
288.204
287.921
287.914
287.639
286.834
286.803
297.789
289.369
308.682
287.945
288.81
295.448
286.703
293.308
303.297
300.384
290.12
293.294
287.965
295.339
287.455
288.882
286.985
287.949
300.437
286.02
292.683
291.293
290.066
286.974
287.691
299.438
291.309
287.423
287.626
288.662
286.287
287.423
287.339
297.804
286.838
292.674
292.539
287.425
287.001
289.209
301.742
287.076
287.998
286.899
287.164
303.707
292.145
288.85
287.512
286.991
288.651
290.824
286.787
289.12
288.057
299.192
298.513
293.934
292.178
295.074
290.211
288.057
287.031
287.783
296.488
289.132
293.619
291.079
287.608
287.88
286.777
297.517
286.906
286.439
293.077
287.614
287.229
290.059
291.587
287.207
287.458
286.803
286.816
289.439
292.543
288.045
287.967
289.743
287.847
287.901
287.95
286.779
289.628
287.232
295.773
286.632
293.46
300.192
298.384
288.423
288.441
292.083
294.606
292.952
290.832
286.931
287.922
286.774
286.567
287.836
288.167
300.42
287.078
287.052
289.102
287.996
287.007
302.118
299.387
287.767
285.06
288.375
287.462
288.117
287.777
287.548
300.317
292.639
291.312
293.439
287.003
284.133
287.301
299.981
288.209
287.917
287.413
298.274
289.948
286.841
292.191
287.257
297.132
288.026
287.641
288.707
297.789
287.71
300.266
304.274
288.128
296.841
296.142
288.063
298.186
293.574
296.981
301.019
293.521
290.476
299.076
291.7
288.585
287.795
288.201
296.664
287.509
300.43
293.646
288.15
286.958
294.591
287.603
289.546
286.584
286.99
293.303
294.119
306.356
290.036
286.539
297.325
294.587
287.134
292.396
288.778
293.585
294.152
295.573
294.41
295.36
294.301
299.989
297.484
292.553
300.296
287.785
286.958
288.768
286.442
294.966
290.252
293.64
288.788
290.301
286.839
286.579
287.994
292.417
291.086
299.779
286.803
287.61
288.318
291.938
297.183
286.209
293.116
292.241
288.055
288.294
287.803
297.765
286.057
292.576
301.316
286.992
293.339
288.053
308.206
287.103
287.417
299.113
287.203
288.377
287.361
293.919
287.607
286.672
286.853
299.488
297.525
288.365
294.584
302.266
286.037
298.16
285.312
286.993
286.838
289.039
288.184
294.864
287.48
298.901
287.447
286.779
287.129
288.357
287.064
302.938
287.148
287.003
286.96
286.771
294.156
287.365
293.134
287.046
287.486
287.117
287.135
285.76
285.388
294.373
287.582
302.442
299.067
287.656
291.706
290.624
287.725
291.741
293.535
295.188
286.747
296.021
288.027
288.478
286.727
288.37
286.771
284.787
287.75
287.278
303.094
287.692
288.104
294.287
293.462
292.707
303.285
286.767
293.817
293.865
287.438
301.901
296.343