/*--------------------------------*- C++ -*----------------------------------*\
| =========                 |                                                 |
| \\      /  F ield         | OpenFOAM Extend Project: Open source CFD        |
|  \\    /   O peration     | Version:  1.6-ext                               |
|   \\  /    A nd           | Web:      www.extend-project.de                 |
|    \\/     M anipulation  |                                                 |
\*---------------------------------------------------------------------------*/
FoamFile
{
    version     2.0;
    format      ascii;
    class       volVectorField;
    location    "2000";
    object      U;
}
// * * * * * * * * * * * * * * * * * * * * * * * * * * * * * * * * * * * * * //

dimensions      [0 1 -1 0 0 0 0];

internalField   nonuniform List<vector> 
26307
(
(-0.00367678 -0.150625 2.30528e-24)
(-0.0629286 0.0129247 -1.78889e-24)
(0.223351 0.0778952 -3.20571e-24)
(-0.0118374 0.0282722 -1.61085e-24)
(0.00475049 0.00574004 0)
(-0.0238558 0.0267375 6.1939e-24)
(-0.0409406 0.0759914 -1.08091e-23)
(0.0636953 0.159803 1.61082e-23)
(-0.0221747 -0.00816409 -1.62831e-23)
(-0.0394528 -0.083442 -2.48191e-26)
(-0.154986 -0.170472 1.60329e-22)
(-0.152822 0.067233 0)
(0.0670417 0.00217868 -3.8559e-24)
(0.201026 0.0860048 0)
(0.0291433 -0.0131107 -1.61395e-24)
(-0.0369376 -0.0504254 0)
(0.082419 0.0625071 5.6948e-24)
(-0.0161353 -0.0374048 2.89486e-23)
(-0.109888 0.0190305 6.71192e-25)
(0.183359 0.124003 0)
(-0.0398499 0.0183313 8.14656e-25)
(0.188671 -0.0210945 1.96896e-23)
(0.017874 -0.00390339 -1.86603e-23)
(0.00891005 -0.0206252 9.65154e-25)
(-0.0469942 -0.0734977 2.30814e-23)
(0.0569875 0.131413 -5.70223e-24)
(-0.0531337 0.119313 0)
(-0.0694144 0.0148457 0)
(-0.0362936 0.027632 -7.84558e-25)
(-0.0315855 0.0349792 4.78796e-25)
(0.0443678 -0.0251593 0)
(-0.0491471 -0.255953 0)
(-0.00744113 -0.0223088 -3.38489e-24)
(-0.031431 0.0561947 -6.49779e-24)
(0.0274114 0.0590819 0)
(-0.229358 -0.00932992 1.13486e-23)
(-0.00176169 -0.30136 0)
(-0.0831604 0.0146342 8.51755e-25)
(0.0435332 0.00801116 -7.99345e-25)
(0.0528168 -0.0383855 0)
(0.0287378 0.0329909 -6.97985e-24)
(-0.0145984 -0.0786124 1.22663e-23)
(0.0338752 -0.069107 -8.97002e-25)
(-0.0495355 -0.0376071 1.15101e-24)
(-0.0808631 0.0318034 0)
(0.36883 -0.00877934 0)
(-0.10226 -0.0440457 1.65068e-23)
(-0.0217454 -0.377091 -3.12136e-24)
(-0.0316562 0.0614599 8.36875e-25)
(-0.0140232 0.00144785 0)
(-0.076609 0.0437664 0)
(0.0483823 -0.0097763 0)
(0.0454336 -0.134907 0)
(0.114493 0.049004 6.3815e-24)
(-0.142576 0.0555695 -1.26047e-25)
(0.303998 -0.0773722 2.15275e-22)
(-0.0257561 -0.0179835 7.1115e-24)
(-0.0171921 -0.0223595 -2.77533e-23)
(0.0078811 -0.473461 -1.13818e-23)
(-0.138955 0.0144972 -1.64766e-23)
(0.219238 -0.00665128 -1.47161e-23)
(0.0357364 -0.0251486 -5.44666e-23)
(-0.00607383 -0.0361632 -3.75594e-26)
(-0.00090599 -0.0270623 -1.8394e-24)
(0.194295 0.126601 -5.11766e-24)
(-0.0486795 0.0581904 0)
(0.351185 -0.11723 4.91771e-23)
(0.0570639 0.0141285 6.58993e-24)
(0.0272124 0.104744 1.19984e-22)
(-0.0216312 0.0900092 3.20057e-23)
(-0.071384 -0.0473182 0)
(0.0468857 0.0585536 -9.46203e-24)
(0.0604852 -0.101428 -4.61645e-25)
(-0.0460941 -0.0297549 -6.54024e-24)
(0.00988895 -0.0948534 3.81452e-24)
(0.0400626 -0.325355 3.65733e-24)
(0.145432 0.0895139 0)
(-0.0654439 0.0299769 2.01476e-23)
(-0.0140385 -0.0693353 2.94111e-26)
(0.0489571 -0.00413066 0)
(0.0399252 -0.0224179 0)
(0.105323 -0.0743186 0)
(0.00601422 0.0344037 4.07359e-24)
(-0.0701817 0.178464 0)
(0.16326 -0.0330697 -2.59945e-23)
(-0.00711941 -0.418673 5.91255e-24)
(-0.142113 0.0877601 0)
(-0.141838 0.0119717 4.32728e-23)
(0.0231176 -0.255968 -2.97579e-25)
(0.0102854 -0.071778 2.5451e-23)
(-0.114184 -0.0711442 -4.31755e-25)
(-0.0539235 -0.0186707 1.68739e-24)
(0.0108037 0.0125545 -1.63593e-23)
(0.0759638 0.0352963 -2.29877e-24)
(-0.273472 -0.0838813 8.28021e-23)
(0.0742901 0.0995821 4.8462e-24)
(0.000174998 0.00181036 -9.9541e-24)
(-0.024177 0.0309701 1.48734e-24)
(-0.043339 -0.0628438 -5.23138e-24)
(-0.102874 -0.0555739 0)
(-0.0107419 0.0325247 -7.41194e-24)
(0.00013875 -0.0031353 1.76312e-26)
(0.156953 -0.0705277 1.12888e-24)
(-0.0283914 -0.137356 9.53522e-24)
(0.0497115 0.00831491 1.39014e-23)
(-0.151421 0.0229778 1.37101e-24)
(0.134404 0.0205612 1.1448e-25)
(-0.0711417 -0.102279 -3.10804e-23)
(0.134418 -0.0409962 5.71739e-24)
(0.213846 0.0160535 5.18673e-25)
(-0.0388006 -0.0734084 7.50792e-25)
(0.0462565 -0.0834662 -2.68749e-23)
(-0.0624763 0.0026362 3.06574e-23)
(-0.0464809 -0.0544712 -4.246e-24)
(-0.0200149 0.000599833 -5.04056e-24)
(0.00408077 0.0605979 -1.73659e-24)
(0.0483136 -0.0830927 9.94459e-24)
(-0.309468 0.0206006 1.25121e-23)
(-0.0410168 -0.316854 5.79011e-25)
(0.0111542 -0.159487 4.43296e-24)
(0.0323576 -0.193754 -2.01931e-24)
(0.0279115 0.0200238 3.55002e-23)
(-0.0151379 0.0570689 -2.93133e-24)
(0.000207948 0.0341867 1.20904e-23)
(0.00621507 0.0245548 0)
(0.000112219 0.0361697 7.05406e-25)
(-0.0886988 0.0348971 2.31496e-23)
(-0.299556 0.0138818 -2.60293e-24)
(-0.0104475 0.0878158 -1.27918e-24)
(0.00753953 0.0408809 9.42905e-25)
(0.00828811 0.0432264 3.64535e-25)
(0.0072656 0.0396355 -1.49774e-25)
(0.0601039 -0.0105104 -6.50078e-24)
(0.326949 0.0188497 0)
(-0.151643 0.102927 1.51036e-24)
(0.0141521 -0.139242 4.12514e-24)
(0.0278106 -0.45934 3.08683e-24)
(0.0356409 -0.182843 0)
(0.0787127 0.114064 1.48223e-23)
(-0.0599952 0.0243064 -1.15648e-23)
(0.0169955 -0.166632 -2.57895e-24)
(0.155625 0.10439 -1.45762e-23)
(-0.316671 0.106651 1.10134e-23)
(0.0503122 -0.100956 1.89252e-23)
(0.248404 -0.032642 3.15893e-24)
(-0.124623 0.213459 3.23948e-23)
(0.0159153 -0.484429 -2.64015e-24)
(0.0619303 0.0113927 -3.77825e-24)
(0.0384265 -0.0201288 0)
(-0.101104 -0.000539672 -2.35447e-24)
(-0.0366865 -0.119717 7.27067e-24)
(-0.487748 0.0663834 0)
(0.0471411 0.0123643 6.12067e-24)
(0.0451036 -0.239948 0)
(0.0474532 -0.0519756 8.22695e-24)
(-0.0402471 -0.106464 0)
(0.0482616 -0.00142772 -3.35298e-24)
(0.515552 0.0761321 -7.5293e-23)
(-0.0258383 0.0324113 -3.73875e-24)
(0.035752 8.54213e-05 -5.73852e-25)
(-0.300093 0.0768322 0)
(0.0224506 0.085831 -1.65396e-23)
(-0.429858 0.00289052 1.55719e-24)
(0.0343211 -0.268055 2.71604e-24)
(-0.125173 -0.0571513 -6.25759e-24)
(0.0886602 0.0531129 3.46442e-24)
(-0.0179098 -0.36581 -6.02694e-24)
(0.0999322 0.0692339 -6.06952e-23)
(0.0348062 0.0325845 1.23587e-23)
(-0.0514561 0.151252 0)
(-0.0352236 -0.0599108 -7.39218e-26)
(0.0329777 -0.0549904 4.02154e-24)
(0.171316 -0.131939 -8.17493e-24)
(0.0225794 -0.108217 1.09114e-23)
(0.0319558 -0.117165 -4.49905e-24)
(0.0594602 -0.00136292 1.19099e-24)
(-0.0414582 -0.149794 0)
(-0.0473009 -0.146568 6.98678e-24)
(-0.0415501 -0.0743093 3.13066e-25)
(-0.050196 -0.0900173 0)
(0.637344 -0.104907 1.76154e-22)
(-0.504437 -0.0756554 4.08715e-22)
(-0.0346731 -0.134603 -1.69525e-24)
(0.0121676 0.00593853 0)
(0.0418396 -0.00160123 0)
(0.214293 0.0146021 -9.08849e-25)
(0.222396 0.0866779 5.18188e-24)
(0.0508915 -0.00109681 -2.23066e-24)
(0.0959256 0.0811551 -2.24133e-23)
(-0.0706519 0.0645071 -2.56842e-24)
(0.0681273 0.05925 -2.12542e-24)
(-0.0338409 -0.0509196 -5.45543e-24)
(-0.00637877 0.0184104 0)
(-0.0626027 -0.11719 -6.19063e-24)
(-0.108418 -0.0154519 -2.11065e-23)
(0.00100769 0.0364443 -3.90368e-23)
(-0.0583001 0.0590652 -1.49552e-23)
(-0.0670362 0.0324979 -1.79364e-23)
(0.217441 -0.0158129 -2.58133e-23)
(0.0137981 -0.30893 -1.72188e-24)
(-0.0181059 0.0625028 2.74349e-24)
(0.113467 -0.0810582 0)
(0.377287 0.0124474 -3.61231e-24)
(-0.00378509 0.0592385 3.28777e-25)
(-0.0757749 0.0427875 -5.5981e-24)
(-0.642974 0.0221739 0)
(-0.0275809 0.0110286 1.07959e-25)
(0.0439333 0.0344577 0)
(-0.0682736 0.104814 4.65182e-24)
(-0.039747 -0.0505121 1.164e-24)
(-0.409137 0.0130907 -7.97752e-24)
(0.0925354 0.111959 4.23495e-24)
(-0.037443 -0.00981748 9.77299e-25)
(0.00357308 0.0574253 -2.33663e-24)
(0.0761593 -0.0118276 -1.13655e-25)
(-0.0338367 -0.271993 1.31461e-23)
(0.1677 0.0921919 -4.50253e-24)
(-0.0663031 0.0953571 2.79469e-24)
(0.045414 -0.0870921 9.33669e-24)
(0.0497045 0.00204374 1.62112e-23)
(0.0477748 0.0919978 3.98094e-24)
(0.0384842 -0.00584586 2.40336e-26)
(0.0555654 -0.0847127 6.13656e-26)
(-0.0806008 0.102781 -5.00746e-24)
(0.0107568 0.0409213 0)
(-0.0582838 -0.0279691 0)
(0.0108019 -0.0493551 6.335e-24)
(-0.0418748 0.088992 -4.01048e-24)
(-0.0420599 0.0126319 0)
(0.0767136 0.0367779 -2.086e-25)
(-0.0523199 0.0414975 1.50089e-24)
(0.122037 0.0109202 -5.49124e-25)
(0.00555696 -0.0410635 -3.19792e-24)
(0.232855 0.0880467 -2.21063e-24)
(-0.0200617 0.00356967 5.78359e-25)
(-0.0440359 0.0153521 -1.7201e-24)
(0.0133411 0.0287173 1.06108e-23)
(-0.0399694 0.00808003 4.3832e-24)
(-0.0371177 -0.056083 9.93321e-24)
(0.300567 0.0333291 -1.0905e-24)
(0.0406958 0.0786964 1.23188e-24)
(0.0301087 -0.0175899 5.72433e-24)
(-0.0150696 0.035019 2.76771e-24)
(-0.0178443 0.0240498 1.494e-24)
(0.0497025 0.105829 7.92379e-24)
(-0.0243529 0.061297 2.16462e-23)
(0.132485 0.123505 -2.89959e-23)
(0.0309921 -0.45042 0)
(0.0620653 0.102798 3.01564e-24)
(-0.0458855 -0.00571669 -2.54509e-24)
(-0.352084 -0.188448 -1.13064e-22)
(0.0414549 -0.0593371 -2.70506e-25)
(0.00386042 0.0286737 3.68674e-25)
(0.00599035 0.0545671 0)
(0.00427908 0.0550981 -5.14378e-25)
(0.00110594 0.0435088 0)
(0.00401105 0.0478888 -1.00804e-24)
(0.00364257 0.0558724 0)
(0.0147643 0.0531387 0)
(-0.0199388 0.0828473 -1.76944e-24)
(0.174437 -0.0728324 -9.72473e-24)
(0.0319968 -0.0175131 2.17048e-23)
(0.00570172 -0.00332607 1.84031e-23)
(0.0102739 -0.0440757 -1.57069e-23)
(-0.0376049 -0.135824 -2.71179e-24)
(-0.0168364 -0.00956504 2.72684e-23)
(-0.300887 0.104159 2.65247e-22)
(0.0107277 -0.5004 1.19057e-24)
(0.00544697 0.0290636 0)
(-0.0238623 -0.0850684 0)
(0.0218229 -0.484004 5.4306e-24)
(-0.0416557 -0.198301 -8.89073e-25)
(0.0849748 -0.0675409 -3.186e-24)
(0.402917 0.0107414 -5.72506e-24)
(-0.0310003 -0.0221844 -4.39558e-24)
(0.0340021 -0.00829161 -1.53443e-24)
(-0.0158164 0.0334146 6.08366e-24)
(0.0240519 -0.0108196 5.29021e-24)
(-0.0420776 -0.0867472 -1.74595e-23)
(-0.100645 0.0461318 -2.88538e-24)
(0.160691 0.12233 4.34445e-24)
(-0.152701 0.117794 0)
(0.199253 0.171406 -1.01683e-25)
(0.0146946 0.0281652 0)
(0.488893 0.0193016 -1.72771e-23)
(-0.117757 0.0716067 0)
(-0.523672 -0.0367307 6.65505e-23)
(0.0569819 -0.105227 7.26385e-24)
(0.0694671 0.0728737 -8.60317e-24)
(0.031186 -0.444784 -5.92759e-24)
(-0.0798975 0.00544061 0)
(-0.0358072 0.0301149 -1.4709e-23)
(-0.00338243 -0.201631 1.19079e-23)
(-0.0196517 -0.492023 0)
(-0.0217748 -0.471675 1.93627e-24)
(-0.0524182 0.0872381 0)
(0.0600325 0.00208549 -9.21268e-24)
(-0.0573935 0.016129 0)
(-0.0169343 -0.517521 -1.1802e-24)
(0.0332873 0.0935611 9.18623e-25)
(-0.0546484 0.0969427 0)
(-0.339841 0.0350858 -1.50898e-23)
(-0.0242873 -0.417385 1.67873e-24)
(-0.012188 -0.506915 -2.38198e-24)
(0.0128298 -0.00293461 -4.59127e-24)
(0.00049587 0.0042119 5.13805e-24)
(-0.129628 0.00787404 -3.72092e-24)
(0.0510325 0.0359308 0)
(0.0347537 0.180553 -2.7762e-23)
(0.0543461 -0.0146222 0)
(0.012627 -0.291349 0)
(0.0315645 0.0966712 -2.47582e-23)
(0.324941 -0.0437763 3.1568e-23)
(0.0379109 -0.00318063 1.4192e-24)
(0.120118 0.00684658 -3.34585e-25)
(0.0584343 -0.0481664 4.51239e-24)
(0.0609154 0.0813458 -2.583e-24)
(-0.199276 0.0807871 7.23409e-24)
(-0.0161034 0.0395927 4.82975e-24)
(-0.114369 0.0622291 7.55393e-24)
(0.0817662 0.0789295 -7.82874e-24)
(-0.0914022 0.100896 -3.87413e-24)
(0.302986 -0.0122805 0)
(0.21031 0.117793 -1.74338e-23)
(0.011193 0.0792952 -3.43617e-23)
(-0.0287971 0.0401475 -3.28729e-25)
(-0.0395403 -0.0368802 4.14917e-24)
(0.0931839 0.140859 -4.83139e-24)
(0.302042 -0.122215 3.84665e-23)
(0.085948 0.0965128 9.73806e-24)
(-0.0150734 -0.229841 1.26236e-24)
(0.00679368 0.0358083 1.17531e-24)
(-0.00114943 0.000498538 6.92977e-23)
(-0.0192355 -0.499494 1.40866e-24)
(0.10609 0.0820447 1.53151e-23)
(0.000982997 0.0604617 0)
(-0.0632031 -0.117014 3.60871e-24)
(0.0594231 -0.0154931 4.31103e-24)
(-0.0329039 -0.158087 6.98024e-24)
(0.0816482 0.124722 1.29173e-23)
(0.0211106 -0.0997739 7.33777e-26)
(-0.00396718 -0.0138333 9.16538e-25)
(0.0744221 -0.110817 0)
(-0.0259019 -0.00322553 -2.02269e-25)
(0.0150909 -0.0408917 1.72596e-23)
(0.0097277 -0.527806 -1.00105e-28)
(0.0973971 0.130662 1.10736e-23)
(-0.0231509 0.0649978 1.17052e-23)
(-0.0872838 0.119345 -1.25613e-23)
(-0.0419053 0.098577 8.53808e-24)
(-0.0131912 -0.536037 1.23442e-24)
(0.00541425 -0.0380588 0)
(0.0128459 -0.0525143 5.98076e-24)
(0.0111243 0.00847138 -1.76849e-24)
(-0.0714498 0.114097 1.46995e-25)
(-0.0236599 -0.451437 4.16505e-24)
(-0.0541062 0.00133733 2.0336e-25)
(-0.000330975 -0.0013074 1.34508e-24)
(-0.00604926 0.00334938 -1.01599e-24)
(0.0907701 0.0825965 -3.38309e-25)
(-0.102089 0.0876244 1.62767e-24)
(-0.053771 -0.00977732 0)
(0.128206 0.135963 -4.01072e-23)
(0.356444 0.00249085 0)
(-0.129909 0.0113781 -3.82892e-25)
(0.118975 0.0104774 -2.10141e-25)
(-0.0100686 -0.660191 8.88901e-24)
(0.097829 0.136917 6.50648e-24)
(-0.0581571 0.00531081 -2.1977e-24)
(-0.0911008 0.125333 -2.86463e-24)
(-0.117808 0.125641 0)
(0.119628 0.252104 -2.06808e-23)
(0.0719673 0.00288389 5.34416e-24)
(-0.173364 0.120246 8.35238e-24)
(-0.0972832 0.074297 -1.17089e-24)
(0.0448242 -0.0751003 -1.22285e-24)
(-0.104276 -0.0547309 0)
(-0.0144353 -0.276617 -3.2087e-24)
(0.0794866 0.0379308 1.1361e-23)
(0.0164048 -0.00865072 3.33568e-24)
(-0.0500137 -0.0512323 -7.22128e-25)
(0.00636186 0.0119873 0)
(0.0504921 0.0562346 5.72094e-24)
(-0.00346308 0.0473667 -3.65279e-24)
(-0.00891668 0.0549861 0)
(-0.0504644 -0.232133 3.50906e-25)
(0.0450002 -0.400914 0)
(-0.0235141 -0.203245 -5.74921e-24)
(-0.00635936 0.112735 -3.16737e-24)
(-0.129928 -0.0587867 6.17237e-24)
(0.00393565 0.124438 3.30423e-24)
(-0.0157246 -0.520923 -1.22479e-24)
(0.225477 0.0782985 5.63693e-24)
(-0.256873 0.0860789 1.72321e-24)
(-0.0663536 -0.0941624 0)
(0.0401596 -0.265181 5.4434e-24)
(-0.038566 -0.0121365 -1.33093e-23)
(-0.107701 0.0265598 -3.83063e-25)
(0.0772688 0.0190716 -5.16761e-25)
(0.0522467 -0.0184079 -1.19105e-23)
(-0.253522 0.0865213 0)
(0.0406413 -0.0401994 1.78199e-24)
(0.0514103 0.0242559 1.30174e-24)
(0.207684 0.112348 1.48796e-22)
(0.00637256 0.0525663 0)
(-0.0743035 0.0359282 -1.87916e-25)
(0.176508 0.0750477 3.97267e-24)
(-0.00671827 0.0160049 5.60369e-24)
(-0.0214905 -0.48068 -3.04537e-24)
(0.299381 0.0374005 1.2552e-23)
(0.0113504 -0.00387775 -1.07484e-24)
(-0.262096 0.0953857 -2.24555e-24)
(-0.0971772 -0.0858815 5.36101e-24)
(-0.00802171 -0.544941 4.80703e-24)
(-0.0278287 0.0718 -3.29682e-25)
(-0.0467657 0.00922773 3.03146e-26)
(-0.0901581 0.0360182 8.92911e-25)
(-0.00877336 -0.0269966 -1.26211e-24)
(-0.00227711 0.0330136 6.79351e-24)
(0.173016 0.139352 -4.88535e-25)
(0.0337938 0.00329487 -2.61584e-24)
(0.00137213 0.0580609 -2.29228e-24)
(-0.0356012 -0.064381 -7.42305e-24)
(-0.0146048 0.0592519 -4.52481e-24)
(0.0716584 -0.130232 5.08809e-25)
(0.0143734 -0.297417 -7.72184e-27)
(0.48898 0.0585315 -1.4465e-23)
(0.0250256 0.0420951 3.11851e-24)
(0.0659514 -0.129291 -6.59912e-24)
(-0.0536241 0.0571303 -3.95893e-24)
(-0.037797 -0.0181511 0)
(0.00159621 -0.701454 -8.0581e-24)
(0.153399 0.123287 -4.83794e-25)
(0.018122 -0.411771 -4.76556e-26)
(-0.0366648 0.00336183 -1.39312e-25)
(0.0350562 0.0506528 -1.65886e-23)
(0.11983 0.00716473 1.40276e-25)
(0.094559 0.136844 2.78398e-23)
(-0.0107699 -0.549002 1.40613e-24)
(-0.0138964 -0.520461 -5.23124e-24)
(0.0107668 -0.0527062 4.13e-25)
(-0.0891794 0.125067 -9.24518e-24)
(-0.125881 0.0122694 -2.16059e-24)
(-0.0414574 0.0385773 0)
(-0.0331775 -0.163903 -1.39152e-24)
(0.381939 -0.0094928 6.59841e-25)
(0.0290009 0.0412585 -2.89171e-24)
(-0.102537 -0.0815062 9.96776e-24)
(-0.107874 0.0608159 -6.97944e-25)
(-0.0658964 -0.0604932 1.95516e-23)
(0.0276507 -0.458326 9.23011e-24)
(-0.00714193 0.0290689 -1.48048e-24)
(0.119948 0.136072 4.77458e-24)
(0.207148 0.0691968 3.15234e-25)
(0.145372 -0.0588062 4.48139e-24)
(-0.150973 0.0438179 -2.45376e-25)
(0.0948383 0.0587459 3.0231e-24)
(0.303343 0.0184118 1.81453e-23)
(-0.0947011 0.0645906 -6.97162e-24)
(-0.0291355 -0.143302 -3.78671e-24)
(-0.126151 0.0262149 -1.26684e-23)
(-0.0550497 0.0611731 0)
(0.0977091 0.019172 2.21563e-24)
(-0.108617 0.0797851 0)
(0.0963745 0.0768331 -4.04083e-24)
(-0.0295942 -0.175809 9.3535e-24)
(0.0371373 0.0543669 8.96192e-24)
(0.0108688 0.0462507 1.23153e-23)
(0.0811856 0.0757371 -1.95321e-23)
(0.0980714 0.0525237 -5.69789e-26)
(-0.227252 -0.0260196 2.15849e-23)
(-0.0539724 0.0140702 -9.42015e-25)
(-0.0146456 -0.533873 -1.15117e-24)
(-0.0208274 -0.460575 -1.37179e-24)
(0.0802804 0.0935591 1.19433e-23)
(-0.091708 0.10262 0)
(-0.291989 0.0298691 -1.28198e-22)
(-0.161798 0.0138071 3.58834e-24)
(0.455271 0.0192596 0)
(-0.0563174 -0.0596829 -1.05001e-24)
(-0.0221464 -0.403205 0)
(0.065037 -0.00444137 0)
(-0.020318 0.0410245 -2.75169e-23)
(0.0546247 0.00300655 -3.95388e-24)
(-0.114542 0.0229513 -1.45128e-23)
(-0.216057 0.0791882 7.37765e-25)
(-0.0180975 -0.504493 -5.77443e-24)
(0.00941832 0.0129958 2.94152e-24)
(0.0365342 -0.430237 0)
(-0.541043 0.0253268 1.83946e-23)
(0.0466902 0.0780178 1.08409e-23)
(-0.0777652 0.0288026 0)
(0.256539 0.195268 -1.51429e-24)
(0.526835 0.0169858 -1.39531e-23)
(0.0239925 -0.0181243 1.13252e-23)
(0.1334 0.18097 1.63769e-23)
(-0.0227146 -0.438518 0)
(-0.0293733 -0.146978 6.93735e-24)
(-0.0150585 -0.0852703 -7.30358e-24)
(0.0578991 -0.0963129 -6.015e-25)
(0.0979513 -0.0933193 -8.58634e-24)
(0.0723831 0.0225979 5.602e-24)
(0.0422286 -0.051649 8.15802e-24)
(0.00434583 0.0486518 -1.00167e-23)
(-0.0325111 -0.241988 4.17084e-25)
(0.0768698 -0.230168 3.93011e-25)
(-0.13783 -0.0557774 7.34442e-25)
(-0.341716 0.000636063 -3.47369e-24)
(0.0648219 0.00949362 -8.62675e-24)
(0.109245 0.137514 1.95155e-23)
(-0.00431587 0.0298212 -1.51908e-24)
(0.000348763 0.0223399 7.79356e-24)
(-0.00430713 0.0354978 9.23532e-24)
(-0.00339803 0.04139 -4.37579e-25)
(-0.102263 0.126121 -9.05196e-24)
(0.0494833 0.00290968 0)
(-0.0629662 -0.0884022 -4.59321e-24)
(-0.159911 0.111105 -2.51935e-25)
(-0.0176946 -0.250594 -1.46995e-26)
(0.0541267 0.0353512 3.3141e-24)
(0.0362666 -0.022061 -1.76204e-23)
(-0.0550111 0.0448048 3.38511e-24)
(-0.0951869 0.0496025 0)
(0.0193588 -0.0884075 0)
(-0.063111 0.0160286 0)
(-0.0129576 0.00203382 3.68003e-23)
(-0.0143072 -0.0370232 -1.87356e-25)
(-0.0189607 -0.481926 -2.792e-24)
(-0.0345858 -0.0237584 1.97663e-23)
(-0.00746909 0.0204203 -1.38851e-23)
(-0.19536 0.0617288 0)
(-0.0174746 -0.51118 -1.59634e-26)
(-0.0246197 -0.290863 7.03532e-24)
(0.287493 0.0152946 6.3452e-27)
(0.0147183 0.0358271 -1.13994e-23)
(-0.0251967 -0.444073 -1.76546e-24)
(-0.0147053 0.0508477 0)
(-0.0718077 0.0377636 -2.55384e-24)
(0.0583672 0.0745831 4.34311e-24)
(-0.0399228 0.0500378 -5.80924e-24)
(0.0469668 -0.0304774 1.07928e-23)
(-0.0201689 -0.487806 -2.87904e-24)
(0.74891 0.0172001 3.25269e-24)
(-0.0201942 -0.426943 1.0193e-25)
(-0.204998 0.0549046 3.62227e-24)
(-0.0385583 -0.275494 0)
(-0.00146215 0.0615704 -1.24992e-24)
(-0.187915 0.0363251 3.1672e-24)
(-0.355445 0.00373544 0)
(0.135719 0.107725 0)
(-0.0228986 0.0242332 -2.52819e-24)
(-0.0084294 -0.321194 -2.5855e-24)
(-0.0699438 0.0632387 -1.10734e-24)
(0.0731313 0.031392 2.40363e-24)
(0.357497 0.0239437 -1.17312e-23)
(-0.118751 0.037136 -5.22095e-24)
(-0.116666 -0.0474116 0)
(0.00531129 0.0621524 -1.03477e-23)
(-0.00648011 0.0653336 -9.3068e-24)
(0.0477121 -0.101715 6.60676e-24)
(-0.130175 0.0721664 -5.49152e-24)
(0.117426 0.0699622 5.52343e-24)
(0.0697471 0.0528369 -2.81663e-23)
(0.394564 0.0159837 0)
(0.49785 -0.0258762 4.36234e-23)
(-0.0392452 -0.295074 1.00622e-23)
(0.0404455 -0.0444318 -9.02242e-24)
(-0.0902294 0.0568269 -3.45634e-24)
(0.199222 0.024875 3.92855e-25)
(0.0803177 0.0336294 3.92002e-24)
(0.0494492 -0.0673138 2.19445e-24)
(-0.0473675 -0.0862242 -8.05594e-24)
(0.0109486 0.00348515 6.00303e-24)
(-0.0588847 0.0107261 5.72835e-24)
(0.0395335 0.0493348 1.32034e-24)
(-0.390332 -0.00964615 2.82829e-25)
(-0.0195592 -0.0277947 7.85539e-24)
(-0.0332995 0.153161 -1.48628e-24)
(-0.0124717 -0.548095 -1.77695e-24)
(-0.0718769 0.0147449 -1.1622e-23)
(0.0533294 -0.0140149 -1.76705e-23)
(0.123616 0.137682 -6.7432e-24)
(0.0563319 0.0465279 0)
(-0.137565 0.00620017 -1.76033e-24)
(0.123085 0.00778147 4.19814e-24)
(-0.0234688 -0.462065 0)
(-0.115215 0.126703 4.02118e-24)
(-0.0272079 0.0372772 4.93213e-24)
(0.386191 -0.0251565 1.11224e-24)
(0.0698227 0.0638923 5.85083e-24)
(0.319695 0.00575087 -1.10972e-25)
(0.177987 0.126517 -5.41443e-24)
(0.124066 0.0119765 -1.64752e-24)
(-0.139982 0.0122967 2.16544e-24)
(0.225695 0.080223 1.29019e-24)
(0.0343985 -0.193142 1.95799e-25)
(-0.0519325 0.0857108 0)
(0.0983042 0.0714386 -1.8483e-24)
(-0.0232827 -0.0683509 0)
(-0.0421346 0.0427204 0)
(-0.00275318 0.0801669 -1.16361e-25)
(0.223798 -0.053914 -1.68953e-23)
(0.204668 0.128783 0)
(0.031073 0.0453918 1.13543e-23)
(-0.0415132 -0.118793 -9.61503e-24)
(0.388478 0.00655929 3.32382e-24)
(-0.0226687 0.0385529 0)
(-0.0233983 0.0391574 -1.07665e-23)
(-0.0102618 0.0553593 -1.68229e-24)
(-0.0110724 0.0608525 0)
(-0.0114696 0.0521842 -9.94127e-25)
(-0.0136317 0.0563663 5.75894e-24)
(-0.0144726 -0.195541 -7.64098e-24)
(-0.462651 0.00661098 -2.52304e-24)
(-0.0577422 -0.0331901 -1.6884e-23)
(0.0871837 0.0494958 1.56721e-23)
(0.110611 0.1731 -1.27909e-23)
(0.00921444 -0.238919 1.23932e-24)
(-0.407112 0.00138945 1.83313e-24)
(-0.00234539 0.0276753 1.65368e-24)
(-0.00268897 -0.494641 8.82956e-24)
(-0.0155259 -0.394764 -6.97153e-25)
(-0.0226752 0.0466651 2.6642e-24)
(-0.0324398 -0.156476 -2.21121e-24)
(0.0609292 -3.9754e-05 0)
(-0.134908 -0.0419423 2.64763e-24)
(0.0793308 -0.036311 1.83973e-23)
(0.0396738 -0.0753352 0)
(-0.0383388 0.0346166 -1.55464e-23)
(0.027079 -0.0194008 4.14213e-25)
(0.127456 0.132668 1.01241e-23)
(-0.0256332 -0.398303 5.09946e-24)
(0.0405827 0.0516939 8.79982e-25)
(0.0388519 -0.0505425 1.11337e-23)
(-0.12067 0.123964 1.88329e-23)
(-0.0522513 -0.0619035 6.51756e-23)
(0.0122126 -0.242346 -1.7714e-24)
(0.19394 0.0750354 -1.77955e-24)
(-0.209485 0.0676574 -1.61764e-24)
(-0.0688892 -0.0132434 5.79365e-24)
(-0.0352992 -0.0376012 -1.73845e-24)
(0.283902 0.0138734 -1.26163e-24)
(0.0218382 -0.348366 -1.81124e-24)
(0.0158347 0.0313042 -1.9443e-24)
(-0.162745 0.0648582 -2.25524e-24)
(-0.0153058 -0.528376 0)
(0.0829879 -0.0863246 0)
(-0.0302395 -0.00922476 3.98719e-25)
(0.059705 -0.00885279 0)
(0.311756 0.0046203 -5.80869e-24)
(0.147422 -0.0893869 -3.72232e-25)
(0.121845 0.0991128 3.7308e-24)
(0.26403 0.00604173 0)
(-0.0518762 0.0517481 -1.07671e-24)
(-0.170753 0.0255318 4.04868e-24)
(0.0347841 -0.0709459 4.81527e-25)
(0.0694696 -0.0980759 -5.47122e-25)
(0.0451981 -0.0200842 7.33103e-24)
(-0.432769 0.0636178 -7.27306e-25)
(-0.0122355 0.000690765 7.95423e-24)
(0.133703 -0.0544849 -8.58932e-25)
(0.0374662 -0.0543479 7.51078e-23)
(-0.151384 -0.0519763 -4.30169e-24)
(-0.0200654 0.0197898 -1.01473e-23)
(0.0446499 -0.0344598 9.42129e-24)
(0.0488912 -0.182199 -4.97794e-24)
(-0.538015 0.0340804 0)
(-0.00603128 -0.00904478 -2.00701e-23)
(-0.0555624 0.0518861 -7.36397e-24)
(-0.0486896 -0.145685 9.54965e-24)
(-0.0338678 0.0485104 0)
(0.079772 0.0323795 3.55857e-25)
(0.044641 -0.0756097 7.50402e-24)
(0.0456855 -0.101534 9.81208e-24)
(-0.0567123 0.0602075 5.9228e-24)
(0.378255 0.00568478 2.54241e-24)
(0.0550607 0.0537588 1.6595e-23)
(-0.0395983 -0.182718 0)
(-0.0971685 0.0523863 2.27055e-24)
(-0.671235 -0.214551 0)
(-0.194193 0.120648 3.81315e-25)
(0.0346388 0.0818841 0)
(-0.0573275 -0.169077 -2.32829e-24)
(0.34152 -0.0165996 -1.08241e-23)
(-0.100406 0.0685835 -1.12782e-23)
(0.0579683 -0.00912302 -7.11435e-24)
(0.0147888 0.0115956 5.7705e-24)
(0.133577 0.0161716 -3.49097e-24)
(-0.00666428 -0.567484 -2.73354e-25)
(0.0225576 -0.347113 8.67715e-25)
(0.53447 0.0176635 0)
(0.0220859 -0.0408821 -9.29271e-25)
(-0.0253706 -0.432306 0)
(-0.0341761 0.0947156 2.40512e-23)
(-0.17154 0.0336956 2.64754e-23)
(0.0995708 0.0553508 -5.39049e-24)
(0.0193544 -0.0677661 4.7377e-23)
(-0.0176532 0.0151883 0)
(-0.20479 0.0478651 -3.38455e-24)
(-0.0401703 -0.0581932 4.56379e-24)
(-0.0212411 -0.369647 -3.12149e-24)
(0.0452492 -0.128623 1.16234e-23)
(0.0885595 0.0442667 -4.14695e-24)
(0.304039 -0.00296903 7.31781e-24)
(-0.0417483 0.05243 1.14047e-23)
(0.0592383 0.043516 -9.14953e-24)
(-0.143991 0.123611 3.40404e-24)
(0.0737213 0.00443077 -1.09557e-23)
(-0.0183645 -0.449841 -3.14111e-24)
(-0.0596443 -0.00281751 1.82694e-25)
(0.0952893 0.0916608 8.20034e-24)
(-0.0642539 0.116873 0)
(0.0648434 -0.0611862 0)
(0.0591281 0.01676 1.10247e-25)
(0.174348 0.0133617 -4.56431e-23)
(0.0719989 0.12807 7.36424e-25)
(-0.0562435 -0.05554 -6.84607e-24)
(-0.00859226 -0.559527 0)
(0.0276263 -0.189202 0)
(-0.0411724 0.0149734 -7.05944e-24)
(0.0669889 -0.116246 1.01605e-23)
(-0.181982 0.0447848 6.62732e-25)
(-0.0617495 -0.0983913 -1.05254e-23)
(-0.168108 0.0163879 -4.65542e-24)
(-0.0431778 -0.154043 0)
(-0.021711 0.0111799 1.7129e-23)
(-0.0536826 0.0196051 -1.33579e-23)
(0.109775 0.102964 1.68308e-23)
(0.0666521 0.00282732 -2.39481e-24)
(0.0254494 0.00762535 1.40133e-23)
(-0.202732 0.059818 2.66662e-22)
(-0.190473 0.0913481 5.10975e-24)
(-0.162225 0.015923 -3.29712e-24)
(-0.00552594 -0.553856 -3.48092e-24)
(-0.00520826 -0.192966 7.2002e-24)
(0.352173 0.240088 5.87794e-23)
(-0.0304534 0.0812578 -3.32426e-24)
(-0.465731 0.0138124 7.71037e-24)
(0.0760695 -0.0612041 -2.18665e-24)
(0.0600811 0.0244503 4.00357e-24)
(-0.029719 -0.397438 0)
(0.0786564 -0.0143994 4.60448e-24)
(-0.0468357 -0.212301 -1.93773e-24)
(-0.23903 0.0775998 1.93872e-22)
(0.0928945 0.0917572 5.10933e-24)
(-0.118308 0.0494622 4.03255e-24)
(-0.105685 0.100848 0)
(-0.0169685 0.00612164 0)
(-0.0233435 0.00516235 7.94674e-25)
(-0.0299671 -0.0170647 5.16321e-24)
(0.00876773 0.00929131 8.74221e-25)
(0.735824 0.0119982 -3.82169e-24)
(0.223735 -0.0598125 5.91427e-23)
(0.112059 0.0772652 3.28847e-24)
(0.05912 -0.299616 0)
(0.0355891 -0.00543677 -1.17123e-24)
(-0.0511597 0.00156148 1.13787e-24)
(-0.219928 0.0715805 -9.04349e-25)
(0.0771352 0.0236425 -8.21678e-24)
(-0.00178181 -0.0780701 -2.0367e-24)
(0.0331439 -0.0931719 -1.00182e-23)
(-0.0111885 -0.488136 -3.62553e-24)
(-0.0138959 0.0405759 -6.14787e-24)
(0.126532 0.01579 4.41108e-25)
(-0.141992 0.0158309 -1.11805e-24)
(0.111559 0.0368426 0)
(0.114255 0.0883176 6.02523e-24)
(0.289343 0.294653 -1.57043e-24)
(-0.0384446 -0.12454 3.14579e-24)
(0.0472151 -0.386116 0)
(0.0247923 -0.156819 -2.04712e-24)
(0.102572 0.0683694 0)
(0.0222674 0.00899782 0)
(-0.0335342 0.00905728 -8.65175e-25)
(0.0885055 0.0454091 1.90218e-24)
(-0.204855 0.0458645 1.88351e-24)
(-0.00295353 -0.0276068 -2.0217e-24)
(0.337443 0.01693 -1.17821e-24)
(-0.219235 0.0588717 0)
(0.0644348 -0.164904 -1.32344e-23)
(-0.0431516 0.0325778 0)
(0.0346424 0.0445119 0)
(0.0375328 -0.11755 -5.55985e-25)
(-0.170414 -0.000264698 1.06931e-22)
(0.0390975 -0.0526276 6.30504e-24)
(-0.0344337 0.0298112 -9.83206e-24)
(0.0421423 -0.0289896 -1.01492e-23)
(-0.0990022 0.0315143 -2.48455e-24)
(-0.0823883 -0.000430974 5.01144e-24)
(-0.016319 -0.0789191 -4.3953e-25)
(-0.0231995 0.0169379 -5.34434e-23)
(0.0211381 -0.0949692 4.79582e-25)
(0.0840226 0.0303619 -3.26471e-25)
(0.0206815 -0.0221364 3.5843e-25)
(0.0379233 -0.144123 4.56192e-24)
(-0.0209749 0.00844774 -2.5643e-24)
(-0.213309 0.0213843 0)
(0.0689356 0.0122142 -3.91211e-24)
(-0.194559 0.0352011 -7.5248e-24)
(0.128077 0.0146258 0)
(-0.0369325 -0.10095 -3.43683e-24)
(-0.0165931 -0.598663 -6.72519e-24)
(-0.178197 0.0264391 7.33107e-24)
(0.0535022 -0.00694661 1.80928e-24)
(0.0899275 0.0172559 0)
(-0.0425526 0.0664299 1.25538e-26)
(0.0600524 -0.00608438 -7.58275e-24)
(0.0583038 -0.0405888 1.22148e-23)
(-0.0625068 -0.011236 -4.64919e-25)
(-0.485005 -0.0257094 1.06665e-22)
(0.355431 -0.00657245 2.04932e-23)
(-0.0463813 -0.0614451 -1.0627e-23)
(-0.0273161 -0.41487 -4.13471e-26)
(-0.0174683 -0.623615 -3.81872e-24)
(-0.0611894 -0.0797549 -1.04552e-24)
(0.0843144 0.136584 6.67372e-24)
(0.0702265 0.0849773 3.59703e-24)
(-0.155649 -0.048539 -3.64122e-24)
(0.0663396 0.0830333 5.96326e-24)
(-0.0447601 0.0143814 5.51829e-24)
(-0.0790736 0.124554 0)
(-0.0410077 0.0788678 -3.72691e-24)
(0.0475902 0.0478463 0)
(0.120918 0.0134332 9.20095e-25)
(-0.134237 0.0151521 7.54035e-25)
(-0.0265915 -0.117745 -3.38085e-25)
(-0.0257202 0.0401107 -2.2465e-24)
(-0.0237792 0.0587703 3.5828e-24)
(0.0502973 -0.0926654 0)
(0.0762855 0.0399922 0)
(-0.10073 0.0436461 3.53233e-24)
(0.000198162 0.00752121 -3.15523e-25)
(0.00193491 0.0275298 6.52178e-24)
(-0.148953 0.113663 -1.7814e-24)
(-0.0295875 0.0143083 -6.15187e-24)
(-0.286892 0.0267838 5.25754e-25)
(-0.0122759 0.0440767 1.64592e-24)
(0.0583356 0.0732477 -2.25532e-24)
(0.0977709 0.0552155 -3.23491e-24)
(-0.0393331 -0.0849256 0)
(-0.0281903 -0.133695 1.01225e-24)
(0.042318 -0.0680212 7.84095e-24)
(0.0549217 -0.360546 1.49867e-24)
(0.00243329 -0.0762369 -1.13125e-23)
(-0.144368 0.0803902 0)
(-0.0338444 -0.162963 0)
(0.0786265 -0.194021 1.07378e-23)
(-0.0978115 0.0121449 1.10558e-23)
(0.0571734 0.13336 5.99792e-24)
(-0.0547341 0.121275 2.61086e-24)
(0.176856 0.0294106 1.63831e-23)
(0.0522412 -0.019588 -8.02185e-24)
(0.0356261 0.0954419 -6.8187e-24)
(0.000350798 -0.172971 3.24603e-25)
(0.142011 0.0436651 -3.46017e-24)
(0.00142544 -0.285798 -1.3017e-23)
(-0.0976607 -0.0580753 -9.64001e-25)
(0.0355603 0.000535495 -8.797e-24)
(-0.0254142 0.00129872 -6.29897e-25)
(-0.362395 -0.00388273 0)
(-0.373137 -0.00659737 0)
(0.264131 0.0058788 -6.24223e-24)
(-0.179049 -0.0988053 -4.30066e-25)
(0.000120496 0.0476156 2.15666e-24)
(0.027294 -0.0688616 -5.01837e-25)
(0.0351399 -0.314676 -2.74468e-25)
(-0.0606973 0.00202231 0)
(-0.0300776 -0.0126593 -4.51181e-23)
(-0.0130745 -0.542517 3.48585e-25)
(-0.00412982 0.0580018 2.1773e-24)
(-0.00246105 0.0457147 5.72213e-24)
(-0.00252702 0.0468314 9.34735e-25)
(-0.00376393 0.0520113 -1.20608e-24)
(-0.00735685 0.0453077 0)
(-0.00197013 0.0466284 -7.48931e-24)
(0.00263414 0.0503438 -1.4086e-26)
(-0.00203304 0.047341 8.84509e-24)
(-0.219915 0.0639383 5.73564e-24)
(0.0472123 -0.108098 3.63913e-24)
(-0.0286337 -0.398659 0)
(-0.0216045 0.020893 -1.04932e-23)