/*--------------------------------*- C++ -*----------------------------------*\
| =========                 |                                                 |
| \\      /  F ield         | OpenFOAM Extend Project: Open source CFD        |
|  \\    /   O peration     | Version:  1.6-ext                               |
|   \\  /    A nd           | Web:      www.extend-project.de                 |
|    \\/     M anipulation  |                                                 |
\*---------------------------------------------------------------------------*/
FoamFile
{
    version     2.0;
    format      ascii;
    class       surfaceScalarField;
    location    "1000";
    object      phi;
}
// * * * * * * * * * * * * * * * * * * * * * * * * * * * * * * * * * * * * * //

dimensions      [0 3 -1 0 0 0 0];

internalField   nonuniform List<scalar> 
180
(
5.05203e-06
-5.05203e-06
6.97335e-06
-1.92132e-06
7.67558e-06
-7.02233e-07
7.75465e-06
-7.9071e-08
7.47857e-06
2.76086e-07
6.97696e-06
5.01609e-07
6.26753e-06
7.09423e-07
5.26957e-06
9.97961e-07
3.6211e-06
1.64847e-06
3.6211e-06
2.75674e-06
-7.80877e-06
3.91098e-06
-3.07556e-06
4.28652e-06
-1.07778e-06
4.36295e-06
-1.55497e-07
4.31606e-06
3.22976e-07
4.15871e-06
6.58954e-07
3.84671e-06
1.02143e-06
3.26704e-06
1.57764e-06
2.14986e-06
2.76564e-06
5.77097e-06
9.85459e-07
-8.79423e-06
1.21656e-06
-3.30666e-06
1.28249e-06
-1.14371e-06
1.42058e-06
-2.9358e-07
1.60311e-06
1.40441e-07
1.71577e-06
5.46296e-07
1.71535e-06
1.02185e-06
1.53114e-06
1.76184e-06
1.02627e-06
3.27052e-06
6.79724e-06
-3.21066e-07
-8.47316e-06
-5.7562e-07
-3.05211e-06
-5.60273e-07
-1.15905e-06
-4.34627e-07
-4.19226e-07
-3.69514e-07
7.53271e-08
-3.85578e-07
5.6236e-07
-4.4223e-07
1.0785e-06
-4.90788e-07
1.8104e-06
-4.04832e-07
3.18456e-06
6.3924e-06
-1.19161e-06
-7.28155e-06
-1.78421e-06
-2.45951e-06
-2.06025e-06
-8.83019e-07
-2.36493e-06
-1.14545e-07
-2.74256e-06
4.52954e-07
-3.09575e-06
9.15552e-07
-3.33449e-06
1.31724e-06
-3.23232e-06
1.70823e-06
-2.35695e-06
2.30919e-06
4.03545e-06
-1.95336e-06
-5.32819e-06
-3.35483e-06
-1.05803e-06
-4.44879e-06
2.10944e-07
-5.34777e-06
7.84435e-07
-6.08329e-06
1.18847e-06
-6.65482e-06
1.48708e-06
-6.89611e-06
1.55853e-06
-6.44477e-06
1.25689e-06
-4.7473e-06
6.11721e-07
-7.11846e-07
-2.62131e-06
-2.70688e-06
-4.51258e-06
8.33233e-07
-5.78849e-06
1.48686e-06
-6.70805e-06
1.704e-06
-7.42054e-06
1.90096e-06
-7.89333e-06
1.95987e-06
-7.93161e-06
1.59681e-06
-7.0017e-06
3.26984e-07
-4.65841e-06
-1.73158e-06
-5.37025e-06
-2.74699e-06
4.01109e-08
-3.97083e-06
2.05707e-06
-4.65633e-06
2.17235e-06
-5.07255e-06
2.12021e-06
-5.30386e-06
2.13227e-06
-5.37937e-06
2.03538e-06
-5.25523e-06
1.47268e-06
-4.34516e-06
-5.8309e-07
-2.48857e-06
-3.58817e-06
-7.85882e-06
-2.82072e-06
2.86084e-06
-2.83179e-06
2.06814e-06
-2.42619e-06
1.76675e-06
-1.90866e-06
1.60268e-06
-1.27856e-06
1.50217e-06
-6.14768e-07
1.37158e-06
1.44791e-07
7.13117e-07
5.57273e-07
-9.95572e-07
2.45349e-07
-3.27624e-06
-7.61347e-06
2.86084e-06
4.92898e-06
6.69573e-06
8.29841e-06
9.80059e-06
1.11722e-05
1.18853e-05
1.08897e-05
7.61347e-06
)
;

boundaryField
{
    movingWall
    {
        type            calculated;
        value           nonuniform List<scalar> 10(6.77626e-21 1.69407e-21 -8.47033e-22 0 -4.23516e-22 4.23516e-22 0 -2.11758e-22 0 -1.05879e-22);
    }
    left
    {
        type            calculated;
        value           nonuniform List<scalar> 10(0 -8.47033e-22 0 1.69407e-21 0 0 0 1.35525e-20 0 -1.35525e-20);
    }
    right
    {
        type            calculated;
        value           nonuniform List<scalar> 10(-8.47033e-22 -1.69407e-21 1.69407e-21 0 0 -3.38813e-21 -3.38813e-21 0 0 6.77626e-21);
    }
    bottom
    {
        type            calculated;
        value           uniform 0;
    }
    frontAndBack
    {
        type            empty;
    }
}


// ************************************************************************* //
