/*--------------------------------*- C++ -*----------------------------------*\
| =========                 |                                                 |
| \\      /  F ield         | OpenFOAM Extend Project: Open source CFD        |
|  \\    /   O peration     | Version:  1.6-ext                               |
|   \\  /    A nd           | Web:      www.extend-project.de                 |
|    \\/     M anipulation  |                                                 |
\*---------------------------------------------------------------------------*/
FoamFile
{
    version     2.0;
    format      ascii;
    class       volVectorField;
    location    "1000";
    object      U;
}
// * * * * * * * * * * * * * * * * * * * * * * * * * * * * * * * * * * * * * //

dimensions      [0 1 -1 0 0 0 0];

internalField   nonuniform List<vector> 
100
(
(0.0326573 -0.0410118 0)
(0.0621352 -0.0196213 0)
(0.0757375 -0.00984241 0)
(0.0787931 -0.00464182 0)
(0.0769244 -0.00130983 0)
(0.0727874 0.00102115 0)
(0.0667156 0.00294012 0)
(0.0587752 0.00501632 0)
(0.0457938 0.00913774 0)
(0.02961 0.022577 0)
(0.013536 -0.0677862 0)
(0.0365843 -0.0257946 0)
(0.0423495 -0.00809508 0)
(0.0439274 0.00065614 0)
(0.0437583 0.00521478 0)
(0.0427016 0.00790542 0)
(0.0403702 0.0104513 0)
(0.0367463 0.0143515 0)
(0.0272928 0.0232572 0)
(0.0190907 0.0475246 0)
(0.00141331 -0.0870011 0)
(0.0140802 -0.0343057 0)
(0.012256 -0.0122831 0)
(0.0133323 -0.00283175 0)
(0.0153198 0.00189805 0)
(0.016869 0.00566374 0)
(0.0172778 0.0100154 0)
(0.0173417 0.0167479 0)
(0.0119799 0.0307972 0)
(0.0112707 0.0648961 0)
(-0.00605357 -0.0886747 0)
(-0.00302771 -0.0315278 0)
(-0.00673284 -0.0108788 0)
(-0.00486221 -0.00351848 0)
(-0.00382604 0.000544418 0)
(-0.00363195 0.00502625 0)
(-0.0043611 0.0102653 0)
(-0.00419028 0.0182882 0)
(-0.00716094 0.0339233 0)
(0.00283099 0.0701089 0)
(-0.0109349 -0.0803142 0)
(-0.0147244 -0.0291271 0)
(-0.0199538 -0.0121899 0)
(-0.0215928 -0.00474063 0)
(-0.0257065 0.00110712 0)
(-0.0293513 0.00620788 0)
(-0.0328345 0.0112184 0)
(-0.0341246 0.0175963 0)
(-0.0312919 0.0291952 0)
(-0.0107328 0.0575756 0)
(-0.0151419 -0.0642843 0)
(-0.0263517 -0.0191244 0)
(-0.0397029 -0.00445263 0)
(-0.0495515 0.00321272 0)
(-0.0575178 0.00846351 0)
(-0.064307 0.0128792 0)
(-0.0692251 0.016503 0)
(-0.0692801 0.0193014 0)
(-0.0584705 0.0228977 0)
(-0.030663 0.0291145 0)
(-0.0193897 -0.040061 0)
(-0.0363713 -0.00105332 0)
(-0.0528465 0.00903008 0)
(-0.0629996 0.0127848 0)
(-0.0711588 0.0157458 0)
(-0.0774307 0.0173324 0)
(-0.0809874 0.0153166 0)
(-0.0781011 0.00632647 0)
(-0.06243 -0.011008 0)
(-0.0222294 -0.0433817 0)
(-0.0225005 -0.0123345 0)
(-0.034729 0.0181392 0)
(-0.0441136 0.021042 0)
(-0.0491022 0.0213866 0)
(-0.0522123 0.0219713 0)
(-0.0539097 0.0208543 0)
(-0.0552412 0.0143262 0)
(-0.0496825 -0.00417262 0)
(-0.0415137 -0.0317451 0)
(0.003912 -0.0728285 0)
(-0.0246153 0.0101973 0)
(-0.0298631 0.0186679 0)
(-0.0267841 0.019061 0)
(-0.0218449 0.0184486 0)
(-0.0161429 0.0183674 0)
(-0.00908456 0.0176195 0)
(-0.00852604 0.0108611 0)
(0.0106499 -0.0132101 0)
(-0.00594742 -0.0426438 0)
(0.0322492 -0.0835833 0)
(0.034697 0.0464146 0)
(0.0369063 0.0271137 0)
(0.0578402 0.0199427 0)
(0.0754125 0.0165273 0)
(0.0906742 0.0144476 0)
(0.105049 0.0127466 0)
(0.116662 0.00915498 0)
(0.120168 0.00249761 0)
(0.0941776 -0.0123885 0)
(0.077387 -0.0573724 0)
)
;

boundaryField
{
    movingWall
    {
        type            fixedValue;
        value           uniform (1 0 0);
    }
    left
    {
        type            fixedValue;
        value           uniform (0 0 0);
    }
    right
    {
        type            fixedValue;
        value           uniform (0 0 0);
    }
    bottom
    {
        type            fixedValue;
        value           uniform (0 0 0);
    }
    frontAndBack
    {
        type            empty;
    }
}


// ************************************************************************* //
