/*--------------------------------*- C++ -*----------------------------------*\
| =========                 |                                                 |
| \\      /  F ield         | OpenFOAM Extend Project: Open source CFD        |
|  \\    /   O peration     | Version:  1.6-ext                               |
|   \\  /    A nd           | Web:      www.extend-project.de                 |
|    \\/     M anipulation  |                                                 |
\*---------------------------------------------------------------------------*/
FoamFile
{
    version     2.0;
    format      ascii;
    class       volScalarField;
    location    "2000";
    object      k;
}
// * * * * * * * * * * * * * * * * * * * * * * * * * * * * * * * * * * * * * //

dimensions      [1 1 -3 -1 0 0 0];

internalField   uniform 0.0026;

boundaryField
{
    topExtWall
    {
        type            zeroGradient;
    }
    toFluidR
    {
        type            chtRcThermalDiffusivitySlave;
        remoteField     kappaEff;
        value           nonuniform List<scalar> 
67
(
0.00392006
0.00491434
0.00362744
0.00460397
0.00407531
0.00442231
0.00470216
0.00466541
0.0045874
0.00490143
0.00391011
0.00469545
0.00411639
0.00513676
0.00461498
0.00510252
0.00434133
0.00356759
0.00490947
0.00410279
0.00452855
0.00470101
0.00569734
0.00500473
0.00524756
0.00430415
0.00556097
0.00517395
0.00445309
0.00451958
0.00469387
0.00529379
0.00459592
0.0050892
0.00435448
0.00416451
0.00407802
0.00518145
0.00446065
0.00507437
0.00444481
0.00442507
0.00514277
0.00479816
0.00549635
0.00418546
0.00471579
0.00386548
0.00363071
0.0053539
0.00451899
0.00498907
0.00777411
0.00585702
0.00759762
0.00673232
0.00513501
0.00481218
0.00675634
0.00687167
0.00629478
0.00398988
0.00557455
0.00620906
0.00646264
0.005514
0.00617959
)
;
    }
    toFluidL
    {
        type            chtRcThermalDiffusivitySlave;
        remoteField     kappaEff;
        value           nonuniform List<scalar> 
67
(
0.00414372
0.00492572
0.00332138
0.00362971
0.00460615
0.00407056
0.00441981
0.00460768
0.00458725
0.00490323
0.00416707
0.00373986
0.0037506
0.00411871
0.00513684
0.00462277
0.00526843
0.00431451
0.0046203
0.00474611
0.00471745
0.00409926
0.00453819
0.00569164
0.00485692
0.0052451
0.00445589
0.00476661
0.00578343
0.00524747
0.00454058
0.00469218
0.00453532
0.00503981
0.00469726
0.00481384
0.00502129
0.00485433
0.00494475
0.00510821
0.00433676
0.0038496
0.00470374
0.00550122
0.0048541
0.00366473
0.00485954
0.00554823
0.00360551
0.00378337
0.00499149
0.0072555
0.00642445
0.00757485
0.00672547
0.0061108
0.00581896
0.00482267
0.0064153
0.00684697
0.00595749
0.00398911
0.00428502
0.00609009
0.00611275
0.0055202
0.00608823
)
;
    }
    defaultFaces
    {
        type            empty;
    }
}


// ************************************************************************* //
