/*--------------------------------*- C++ -*----------------------------------*\
| =========                 |                                                 |
| \\      /  F ield         | OpenFOAM Extend Project: Open source CFD        |
|  \\    /   O peration     | Version:  1.6-ext                               |
|   \\  /    A nd           | Web:      www.extend-project.de                 |
|    \\/     M anipulation  |                                                 |
\*---------------------------------------------------------------------------*/
FoamFile
{
    version     2.0;
    format      ascii;
    class       volScalarField;
    location    "2000";
    object      T;
}
// * * * * * * * * * * * * * * * * * * * * * * * * * * * * * * * * * * * * * //

dimensions      [0 0 0 1 0 0 0];

internalField   nonuniform List<scalar> 
1557
(
286.82
257.93
254.484
257.934
276.48
273.376
256.513
262.115
265.143
280.318
270.149
269.54
262.67
267.311
286.444
277.496
251.707
252.945
262.283
281.012
275.904
251.602
264.49
279.802
264.393
254.298
280.335
263.046
278.217
255.38
262.983
277.438
285.947
251.651
280.864
285.813
251.798
277.945
280.094
281.923
284.006
273.452
254.855
272.116
284.366
286.618
257.511
261.215
266.317
258.589
285.263
279.603
284.673
261.824
253.011
272.249
284.979
279.361
275.122
256.087
275.374
271.031
265.427
261.985
252.398
270.598
279.402
252.984
267.947
286.461
259.943
259.45
265.898
269.635
270.939
253.074
274.429
275.996
260.972
261.944
282.264
286.609
283.89
254.354
268.281
271.506
251.883
281.911
270.625
271.15
285.327
285.9
274.1
251.191
255.217
262.008
278.898
280.407
267.314
252.247
271.93
286.273
254.192
276.769
272.217
276.68
279.299
254.958
270.619
278.329
267.157
286.324
254.049
252.699
272.812
259.936
275.141
285.807
262.041
254.691
269.553
265.659
271.916
282.879
284.002
282.362
255.586
277.113
280.544
284.466
255.428
273.385
251.604
277.086
252.927
259.828
280.331
278.501
257.661
267.372
283.206
251.545
254.4
273.835
254.946
275.727
266.125
270.372
261.484
279.826
261.736
284.116
269.636
276.786
270.872
283.248
260.094
269.77
279.223
285.655
252.797
279.27
266.6
282.581
261.905
280.783
286.201
284.243
252.745
252.355
262.259
282.358
262.849
273.787
263.747
279.689
266.464
253.926
282.586
270.972
257.537
260.454
267.047
276.929
281.395
271.383
285.815
281.896
263.934
276.187
280.319
255.76
258.738
254.592
275.549
284.575
251.299
273.308
263.758
254.837
260.499
272.542
285.703
252.61
268.831
253.074
267.757
257.741
283.311
275.896
251.292
267.827
274.666
270.603
257.723
269.288
264.443
266.817
266.941
259.825
269.078
286.567
257.372
256.767
286.372
277.928
252.892
275.099
262.412
275.593
260.965
272.048
281.369
281.81
286.877
281.333
284.011
276.71
253.819
285.92
255.704
285.817
267.358
274.852
268.143
274.711
278.792
252.449
265.643
257.102
251.854
254.291
283.573
262.71
261.48
264.749
265.554
284.401
251.664
280.577
265.571
268.991
267.855
272.562
278.226
254.992
267.336
280.783
282.96
278.238
260.082
257.238
283.051
285.751
274.202
259.571
268.824
263.987
256.305
271.119
262.727
272.206
259.399
265.948
270.25
279.772
280.151
251.362
267.312
281.31
274.311
251.497
273.912
270.373
255.664
255.007
252.151
277.258
264.878
283.326
255.025
276.973
266.193
276.935
283.557
272.544
268.244
269.353
265.369
254.409
257.503
260.937
274.271
262.454
269.941
276.958
264.859
259.286
286.574
263.87
257.495
277.592
286.443
256.46
268.959
257.036
267.667
254.785
262.31
265.431
286.373
258.424
267.635
272.151
283.674
266.323
284.397
252.055
254.241
256.43
285.294
254.186
266.952
273.918
264.135
254.47
286.803
262.347
277.281
278.356
262.647
280.514
281.925
257.66
269.504
284.189
268.807
258.741
257.437
257.995
269.797
273.283
255.98
277.707
254.037
282.192
258.238
278.498
269.945
286.631
263.777
284.252
286.484
279.157
286.577
286.793
256.573
251.609
286.287
261.235
279.208
257.559
264.504
274.609
255.905
282.889
277.079
277.668
260.694
264.143
262.896
274.073
276.772
262.284
281.435
259.057
262.301
281.943
272.854
285.283
276.206
251.521
282.664
269.686
268.294
264.663
264.454
286.419
277.462
266.357
259.059
259.455
276.096
272.512
260.272
259.86
281.701
277.886
257.76
269.476
277.873
258.772
265.064
251.63
263.746
257.521
267.102
280.552
260.507
265.718
283.888
256.238
260.106
276.933
270.831
279.611
282.029
283.721
264.989
281.144
273.449
283.766
273.72
265.567
274.709
281.727
273.529
254.207
251.479
256.478
266.777
271.691
275.024
275.474
267.777
280.464
270.126
257.513
273.744
265.711
264.288
251.756
255.788
283.671
276.273
265.02
253.438
260.971
260.841
262.072
268.533
271.416
270.856
279.39
279.019
251.593
265.98
271.69
281.027
266.325
260.096
272.741
278.453
253.061
261.165
286.63
276.331
267.345
257.312
273.98
273.839
278.993
257.284
254.63
254.071
283.851
258.884
274.002
280.607
285.578
281.712
279.829
269.818
258.114
284.424
262.005
269.152
251.678
284.139
256.833
263.078
286.548
283.239
262.619
270.323
282.198
282.262
251.739
259.351
253.628
270.513
283.817
252.149
286.581
251.739
256.115
279.799
271.269
257.149
286.662
267.026
251.591
255.649
261.592
261.994
282.324
264.393
264.407
262.783
268.173
260.303
272.743
286.476
286.848
278.835
274.591
275.403
276.974
266.57
276.625
282.287
261.64
264.987
251.613
273.74
271.963
251.312
264.541
281.126
260.213
258.184
268.51
261.766
258.121
278.997
275.422
271.764
255.518
255.692
272.412
256.941
259.54
264.475
280.857
282.097
285.416
278.642
257.393
286.839
266.48
254.607
262.269
262.452
276.428
261.601
259.462
265.507
280.836
270.552
269.461
251.768
267.332
287.644
285.591
276.533
281.483
277.361
252.159
282.006
263.422
277.997
251.717
255.532
278.736
254.509
287.275
282.493
263.099
287.458
280.186
283.577
286.066
274.175
265.818
286.418
286.305
261.785
281.081
286.688
261.479
262.445
272.173
286.921
280.704
285.61
276.744
266.228
262.609
259.256
252.495
280.247
268.771
286.185
260.278
274.437
266.441
269.666
272.045
274.714
277.372
274.868
261.184
262.562
281.626
287.641
254.179
259.549
283.968
254.544
268.624
272.615
281.996
271.43
287.159
252.183
287.321
274.741
271.249
255.101
255.767
253.674
262.611
280.445
266.173
272.994
254.707
286.712
259.056
277.462
273.317
278.04
279.535
286.101
271.124
278.358
270.166
254.277
252.839
273.313
268.395
276.194
285.852
254.945
260.358
262.626
251.798
269.668
286.551
266.48
258.02
272.346
266.754
285.294
282.955
255.75
281.813
286.49
255.585
251.681
262.545
273.952
276.209
251.734
269.93
277.631
253.081
270.912
281.233
279.196
262.243
267.779
283.858
270.678
260.602
254.532
274.105
276.051
266.979
271.462
262.312
262.06
251.193
262.199
284.317
270.398
276.979
266.151
280.245
284.143
260.554
270.828
280.884
285.834
279.764
267.083
282.136
262.43
262.439
281.701
285.989
254.658
257.503
255.076
252.886
282.324
274.99
256.474
251.395
275.98
267.322
251.506
257.407
282.947
272.05
264.211
267.408
257.932
282.954
275.604
287.526
255.953
282.611
282.166
285.12
259.171
269.143
279.478
276.741
262.677
280.486
261.71
276.17
251.265
254.774
273.791
264.099
260.801
254.973
272.018
273.499
273.288
285.269
252.739
258.073
268.231
284.3
275.161
269.721
286.342
251.554
264.729
276.021
271.074
286.554
264.826
267.665
269.691
266.982
267.006
257.749
279.089
275.707
262.48
261.438
259.594
280.591
252.425
285.807
282.767
287.128
285.088
255.985
280.446
263.224
266.994
274.073
270.171
255.847
256.189
274.855
268.583
276.475
252.571
266.25
257.468
251.941
283.073
265.632
269.657
258.797
263.056
261.944
267.402
265.192
285.18
251.744
282.28
269.246
265.903
278.85
268.164
281.573
256.745
283.469
276.874
258.553
257.601
258.901
272.116
284.22
259.041
286.336
269.355
256.588
278.111
264.453
256.462
271.509
273.279
268.95
263.07
272.23
259.651
280.105
279.345
267.27
265.425
257.159
268.162
259.349
274.483
274.842
281.337
255.196
256.053
252.26
277.53
255.267
277.599
277.795
254.602
252.348
262.867
272.365
264.829
270.665
283.443
278.399
277.997
265.296
287.091
261.788
276.534
258.075
252.746
276.927
286.268
256.599
255.603
278.255
257.386
268.47
269.847
280.663
255
265.849
254.17
273.054
261.9
283.81
269.651
284.715
284.139
258.138
265.997
256.646
286.119
263.721
267.54
274.323
258.032
287.14
278.604
259.927
279.824
263.992
281.525
282.065
257.937
251.523
269.104
273.272
257.665
258.384
267.983
256.052
266.041
263.065
282.492
260.513
279.293
270.561
286.746
264.39
274.069
284.792
286.637
279.56
258.044
287.28
256.875
251.656
260.652
276.133
286.61
283.862
264.073
251.482
283.501
278.514
278.909
286.415
252.444
277.798
281.052
282.644
259.482
262.626
282.185
273.672
270.55
284.871
264.538
265.759
276.612
267.536
251.459
275.729
253.931
263.798
251.652
269.053
287.098
278.953
259.712
281.068
255.461
277.255
273.137
268.462
256.198
271.98
282.36
279.431
258.083
251.566
277.966
264.705
267.711
283.922
276.062
260.388
265.786
277.784
271.79
279.878
283.492
274.416
272.045
284.357
254.191
256.627
281.599
274.269
255.453
281.668
275.267
251.233
259.612
266.149
251.521
267.432
271.996
276.242
276.216
268.221
260.508
262.043
280.016
270.255
257.851
274.822
260.589
255.069
265.209
251.807
256.076
283.802
261.416
262.68
254.032
254.305
265.054
270.02
261.576
276.131
261.157
266.298
271.994
279.987
254.435
270.776
251.654
266.668
271.987
279.452
274.256
272.606
266.597
258.011
256.489
260.428
253.153
273.496
254.827
286.844
256.749
267.887
276.986
257.545
274.803
274.197
259.976
280.042
253.371
254.811
264.517
254.205
267.606
253.649
283.865
279.73
287.446
283.143
254.432
269.622
254.131
263.688
281.93
252.627
264.812
257.7
252.103
258.353
284.684
252.119
251.733
283.604
254.496
269.561
263.271
286.652
284.598
269.997
263.207
284.035
283.255
259.74
251.625
265.975
270.957
252.258
286.517
278.241
283.851
268.455
283.904
271.569
280.053
273.763
251.65
257.847
263.25
251.562
264.767
266.795
273.781
251.564
287.079
266.173
286.869
260.681
276.865
263.677
283.767
279.691
260.035
265.365
278.79
251.671
275.017
272.103
272.34
256.511
264.901
281.795
264.107
272.034
279.936
283.92
276.314
259.953
263.967
257.129
253.445
256.926
281.616
273.824
287.475
269.773
284.685
266.347
262.98
278.911
259.403
265.488
266.504
259.863
272.764
273.214
286.615
280.213
278.623
251.554
286.514
271.136
251.852
258.866
259.281
287.197
277.16
279.003
283.894
267.786
262.316
270.947
268.406
273.727
280.842
257.231
268.746
264.819
265.046
258.484
252.607
284.091
286.66
265.243
269.142
267.417
270.076
287.305
270.592
267.112
260.798
278.452
270.945
280.409
268.386
260.132
280.594
276.821
256.452
263.896
255.356
251.385
287.25
284.112
267.823
266.824
257.217
275.942
271.681
271.07
254.008
261.376
256.828
255.83
271.648
281.553
252.147
283.33
280.655
273.778
267.214
261.286
272.902
273.383
272.811
274.724
277.095
277.676
263.223
260.512
275.674
284.502
269.49
281.878
279.194
282.319
284.724
278.764
271.871
267.138
250.825
283.586
278.023
251.238
253.743
251.128
250.916
253.587
254.256
250.969
270.179
271.788
287.026
283.811
286.045
282.186
287.073
284.637
287.12
256.303
274.299
276.867
263.013
262.555
267.058
268.281
277.348
263.395
267.616
266.006
259.066
255.874
263.728
279.853
282.737
284.047
264.599
281.475
257.028
258.949
272.121
271.01
265.414
270.747
272.571
284.698
283.638
258.207
287.126
284.022
275.572
258.569
257.244
271.198
278.757
286.941
283.772
275.979
277.728
261.224
261.449
273.159
271.027
262.405
254.099
250.919
253.13
281.886
255.785
250.776
283.937
275.844
273.679
283.421
253.69
261.526
252.21
287.188
253.009
267.581
274.121
285.008
277.141
265.723
278.401
282.167
285.049
264.385
267.158
274.286
269.302
277.277
272.19
270.367
261.457
275.099
256.253
253.404
256.356
251.115
251.088
258.905
275.845
256.782
269.715
285.667
266.781
262.759
263.292
279.111
272.632
257.727
273.452
288.066
277.615
251.625
287.696
251.93
286.886
257.862
272.109
262.391
277.311
260.041
283.212
279.657
271.738
269.18
274.861
281.95
257.532
269.727
265.561
265.762
258.928
268.637
252.696
251.044
286.745
287.504
265.666
270.754
257.197
255.403
267.695
287.021
271.262
256.087
278.59
253.907
258.176
280.701
282.333
251.437
282.071
287.252
283.757
250.866
267.497
256.303
267.118
267.111
277.247
271.997
271.398
261.922
254.435
253.353
258.989
280.865
285.099
282.277
274.108
261.753
273.424
267.254
272.662
274.661
256.342
277.473
278.156
262.86
253.091
260.199
256.259
276.106
258.429
284.86
269.766
281.921
264.145
257.109
278.196
263.764
259.06
280.191
282.505
285.719
279.663
272.743
267.775
253.18
285.074
279.251
250.942
253.686
270.772
272.422
287.613
287.906
283.741
287.275
285.145
287.136
250.909
256.505
281.08
274.357
276.91
263.385
262.017
267.284
268.912
278.113
259.685
256.637
257.198
270.159
264.093
280.306
283.144
284.485
264.565
281.744
268.592
259.196
280.427
257.915
271.646
270.739
284.811
283.731
258.438
287.661
253.686
276.064
258.852
257.457
279.479
287.833
281.825
283.945
275.741
278.034
273.714
271.475
262.729
250.966
282.617
253.853
256.038
251.737
277.229
274.945
284.145
261.89
279.997
278.908
252.463
287.22
257.854
268.054
274.573
285.051
269.968
266.449
279.127
278.004
282.37
285.28
264.973
267.543
281.683
270.232
273.727
252.036
262.139
278.211
272.912
271.246
261.817
275.918
256.193
275.472
260.619
266.536
250.78
251.967
262.776
259.252
257.076
276.927
255.667
)
;

boundaryField
{
    topExtWall
    {
        type            extendedWallHeatTransfer;
        K               k;
        radiation       0;
        Tinf            250;
        hc              2;
        alpha           50;

        radiationSources
        (
        );

        value           nonuniform List<scalar> 
128
(
250.206
250.188
250.192
250.199
250.36
252.292
250.219
250.191
252.101
250.298
250.263
250.569
250.191
250.281
250.197
250.301
250.171
250.618
250.309
250.332
250.189
250.389
250.716
250.319
250.238
250.222
250.828
250.171
250.183
250.335
250.957
250.258
250.582
250.778
250.21
250.186
250.193
250.187
250.211
250.21
250.239
251.42
250.185
251.163
250.469
250.25
250.213
250.213
250.215
250.189
250.198
250.24
250.195
252.31
250.266
252.024
250.277
250.187
250.59
250.189
250.197
250.297
250.174
250.317
250.19
250.179
250.19
250.64
250.326
250.202
250.271
250.739
250.336
250.25
250.233
250.854
250.353
250.355
250.983
250.182
250.215
250.188
250.293
250.177
250.212
250.204
250.739
250.22
250.192
250.217
250.219
250.537
250.415
250.315
250.247
251.45
250.184
250.263
250.222
251.113
250.202
250.191
250.223
254.637
250.377
250.417
250.473
250.244
250.19
250.278
250.187
250.194
250.181
250.197
250.165
250.232
250.227
254.651
250.397
250.437
250.492
250.18
250.439
250.187
250.2
250.179
250.201
250.22
)
;
    }
    toFluidR
    {
        type            chtRcTemperature;
        K               k;
        radiation       0;
        remoteField     T;
        value           nonuniform List<scalar> 
67
(
287.999
287.671
287.595
287.323
286.639
286.666
288.069
288.253
286.63
286.727
288.049
287.062
287.8
286.868
287.548
283.068
287.928
287.948
288.57
286.769
288.077
288.241
287.031
288.135
287.918
287.916
287.862
288.248
287.318
287.963
287.93
287.985
288.156
287.935
287.921
287.934
288.249
287.915
287.917
288.151
287.859
287.556
287.931
287.884
287.054
287.934
287.986
288.203
287.961
287.873
288.157
286.89
284.637
287.859
287.356
287.626
288.122
288.1
288.09
287.938
287.875
287.146
287.903
287.943
287.899
287.819
287.967
)
;
    }
    toFluidL
    {
        type            chtRcTemperature;
        K               k;
        radiation       0;
        remoteField     T;
        value           nonuniform List<scalar> 
67
(
287.991
288.873
287.895
288.995
289.042
289.078
289.071
287.846
289.005
289.006
287.837
287.906
286.939
288.783
289.002
288.946
279.551
288.322
287.835
287.984
289.192
289.117
288.951
289.018
286.395
287.724
287.98
287.974
288.096
283.496
288.949
288.456
287.872
288.253
288.018
287.996
288.468
287.989
288.965
287.832
288.647
289.075
288.093
289.058
288.004
287.947
284.931
288.091
288.352
289.465
289.11
284.626
287.575
289.012
289.042
287.834
287.829
289.072
287.839
287.963
288.533
289.153
288.121
287.962
288.522
288.727
287.966
)
;
    }
    defaultFaces
    {
        type            empty;
    }
}


// ************************************************************************* //
