/*--------------------------------*- C++ -*----------------------------------*\
| =========                 |                                                 |
| \\      /  F ield         | OpenFOAM Extend Project: Open source CFD        |
|  \\    /   O peration     | Version:  1.6-ext                               |
|   \\  /    A nd           | Web:      www.extend-project.de                 |
|    \\/     M anipulation  |                                                 |
\*---------------------------------------------------------------------------*/
FoamFile
{
    version     2.0;
    format      ascii;
    class       volScalarField;
    location    "2000";
    object      k;
}
// * * * * * * * * * * * * * * * * * * * * * * * * * * * * * * * * * * * * * //

dimensions      [1 1 -3 -1 0 0 0];

internalField   uniform 0.0026;

boundaryField
{
    topExtWall
    {
        type            zeroGradient;
    }
    toFluidR
    {
        type            chtRcThermalDiffusivitySlave;
        remoteField     kappaEff;
        value           nonuniform List<scalar> 
67
(
3.92539e-05
4.94394e-05
0.0503627
4.62581e-05
0.0470091
4.44136e-05
4.71156e-05
4.66533e-05
4.60783e-05
4.92854e-05
3.91406e-05
0.00685285
4.12617e-05
5.16732e-05
4.64119e-05
0.00614904
0.0338069
3.57024e-05
0.0209269
0.17944
0.0282174
4.70311e-05
5.74152e-05
5.00254e-05
5.26791e-05
4.31334e-05
5.59735e-05
5.17551e-05
0.00648057
4.53735e-05
0.121346
5.32241e-05
4.59999e-05
5.11849e-05
4.36663e-05
4.17337e-05
4.07867e-05
5.21321e-05
4.47231e-05
0.0291799
0.313194
0.00786178
0.0227995
4.81823e-05
5.54459e-05
4.19496e-05
4.73499e-05
3.86592e-05
0.0233453
5.3838e-05
0.0120504
5.01784e-05
0.0132792
0.0460446
7.68751e-05
6.78804e-05
5.14027e-05
4.8221e-05
6.78416e-05
6.91853e-05
6.36403e-05
3.99419e-05
5.60394e-05
6.24852e-05
6.5293e-05
5.55429e-05
6.2237e-05
)
;
    }
    toFluidL
    {
        type            chtRcThermalDiffusivitySlave;
        remoteField     kappaEff;
        value           nonuniform List<scalar> 
67
(
4.1469e-05
4.93909e-05
3.3215e-05
3.63183e-05
4.61633e-05
4.07996e-05
4.43417e-05
4.61433e-05
4.60402e-05
4.92616e-05
4.16828e-05
3.74166e-05
0.0050758
4.12247e-05
5.16275e-05
4.6348e-05
0.00672448
4.3119e-05
4.62463e-05
4.75051e-05
0.0254861
4.10686e-05
0.0591485
5.72832e-05
0.0534767
5.25154e-05
4.4599e-05
4.7721e-05
5.78348e-05
0.00813178
4.5581e-05
4.68592e-05
4.54311e-05
5.03924e-05
4.69911e-05
4.81717e-05
5.01733e-05
4.8585e-05
0.0466364
5.11511e-05
4.34255e-05
0.00666521
4.70512e-05
5.52596e-05
4.85662e-05
3.66617e-05
0.0113866
5.54948e-05
3.60505e-05
0.0095317
5.00697e-05
0.012201
6.4327e-05
7.65344e-05
6.77892e-05
6.12437e-05
5.83073e-05
4.83155e-05
6.43124e-05
6.86597e-05
5.96647e-05
3.99121e-05
4.28583e-05
6.1061e-05
6.11288e-05
5.53428e-05
6.10534e-05
)
;
    }
    defaultFaces
    {
        type            empty;
    }
}


// ************************************************************************* //
