/*--------------------------------*- C++ -*----------------------------------*\
| =========                 |                                                 |
| \\      /  F ield         | OpenFOAM Extend Project: Open source CFD        |
|  \\    /   O peration     | Version:  1.6-ext                               |
|   \\  /    A nd           | Web:      www.extend-project.de                 |
|    \\/     M anipulation  |                                                 |
\*---------------------------------------------------------------------------*/
FoamFile
{
    version     2.0;
    format      ascii;
    class       volScalarField;
    location    "2000";
    object      T;
}
// * * * * * * * * * * * * * * * * * * * * * * * * * * * * * * * * * * * * * //

dimensions      [0 0 0 1 0 0 0];

internalField   nonuniform List<scalar> 
1557
(
297.685
260.088
255.823
260.026
283.83
279.873
258.2
265.305
269.491
288.9
275.672
274.802
266.038
271.959
299.231
285.681
252.15
253.704
265.556
289.858
283.832
252.014
268.311
291.164
268.316
255.406
291.888
266.739
286.071
256.953
266.585
287.057
298.481
252.077
292.552
298.857
252.263
285.75
288.739
293.659
297.061
280.795
256.108
278.212
297.585
297.416
259.534
265.163
270.75
260.874
295.489
290.233
297.976
266.053
253.803
278.305
298.284
289.651
282.951
257.665
284.948
276.748
270.913
266.311
253.08
276.236
288.875
253.831
274.026
297.047
263.052
262.02
271.526
276.603
278.743
253.91
281.348
285.808
263.847
266.315
291.389
299.227
294
255.929
273.469
279.54
252.375
291.215
276.716
276.948
298.558
298.686
281.518
251.497
256.564
266.41
287.003
289.103
275.942
252.863
279.557
298.07
255.352
285.096
280.498
286.72
287.793
256.256
276.805
286.312
271.951
297.4
255.19
253.65
280.37
262.728
283.585
296.512
266.449
255.908
274.855
271.313
278.293
291.982
296.086
292.566
257.28
284.622
291.111
297.519
257.315
280.473
252.052
285.078
253.976
262.394
289.8
287.355
259.643
272.476
293.829
251.96
255.757
280.505
256.265
283.116
272.017
277.908
265.457
288.196
265.534
294.553
276.008
284.354
276.481
294.321
263.475
276.987
290.337
296.828
253.539
288.013
271.658
291.854
266.242
290.322
296.538
296.854
253.736
252.994
265.476
291.722
266.211
282.276
267.481
288.071
272.534
254.957
292.523
278.49
260.248
263.182
271.916
284.386
293.154
277.141
298.956
291.005
267.605
283.945
289.119
257.294
261.147
256.073
282.587
294.82
251.638
280.203
268.424
256.512
263.534
280.066
296.094
253.556
274.031
253.932
272.553
259.933
294.598
283.053
251.647
272.577
283.915
276.726
259.747
274.887
269.382
273.033
271.489
262.444
274.193
297.895
260.045
258.528
297.517
287.416
253.729
281.993
265.79
282.721
264.586
278.018
290.204
292.373
298.92
290.134
295.619
284.108
254.84
296.804
257.653
296.183
271.973
281.707
274.127
281.474
288.67
253.34
270.691
259.602
252.488
255.4
293.138
266.518
265.62
269.273
269.779
295.656
252.227
292.061
269.927
274.275
272.6
278.969
286.034
256.312
273.731
290.696
293.269
286.116
263.079
259.872
294.364
297.717
280.859
262.055
274.545
268.353
258.427
277.193
266.387
278.268
261.84
270.258
277.022
288.57
288.589
251.723
273.346
290.324
281.066
251.897
281.763
275.85
257.248
256.799
252.935
285.09
268.871
293.151
256.742
285.136
270.466
285.568
293.401
278.665
273.117
274.573
269.418
255.844
259.488
263.789
280.911
265.919
276.325
286.66
270.014
261.697
298.672
267.533
259.576
285.249
297.302
258.671
274.01
259.6
274.145
256.399
265.526
270.066
296.661
260.86
272.357
280.196
293.381
270.655
295.128
252.607
255.344
258.276
297.219
255.315
272.303
280.829
267.86
255.888
298.841
265.684
287.47
288.637
266.125
290.649
291.319
260.084
274.721
294.326
274.082
261.046
259.725
260.739
275.222
279.646
258.061
285.501
255.077
291.892
260.38
288.168
276.13
298.22
268.382
295.332
297.917
287.8
296.711
299.175
258.965
252.072
297.538
264.167
287.654
259.515
268.321
281.343
257.444
293.409
287.003
287.88
263.502
268.705
266.278
280.68
285.647
265.581
292.215
262.131
265.932
291.477
280.195
295.341
283.824
251.913
291.698
275.135
274.311
268.695
268.551
298.687
285.093
270.676
261.55
262.223
285.036
280.229
262.997
262.432
291.558
288.35
260.287
274.768
285.736
261.052
269.033
252.054
267.443
259.54
271.746
289.266
263.277
270.028
293.641
257.94
263.133
285.559
277.897
288.254
293.827
294.747
268.98
290.602
279.838
294.284
281.627
270.101
282.142
290.586
279.934
255.306
251.911
258.152
272.818
277.791
283.763
283.464
273.073
289.114
275.55
260.029
281.848
269.876
268.214
252.284
257.794
293.776
283.524
269.039
254.38
264.036
264.142
265.22
273.621
277.944
276.477
288.244
287.04
252.103
271.277
277.761
289.875
270.858
262.822
278.931
286.41
253.993
264.191
298.4
283.609
272.71
259.883
282.453
280.672
288.647
259.223
256.109
255.244
293.762
261.26
280.584
289.192
298.939
292.954
288.185
275.148
260.571
295.12
265.285
274.41
252.196
293.946
258.681
267.732
298.048
294.929
266.901
275.785
291.484
294.358
252.186
263.128
254.717
277.258
293.89
252.895
297.501
252.192
257.724
288.212
277.276
259
296.774
271.571
252.105
257.107
264.687
265.136
291.667
268.171
268.618
266.846
273.08
263.979
281.132
298.162
298.821
286.957
281.372
282.421
284.449
270.981
284.194
292.549
264.772
269.427
252.122
282.508
277.981
251.649
268.638
291.015
262.879
260.308
273.435
265.387
260.234
287.861
283.637
277.671
257.011
257.249
278.477
259.002
262.228
268.311
290.79
291.115
298.871
287.299
259.318
297.427
271.073
255.785
265.838
265.806
283.575
264.668
261.857
269.509
289.476
275.903
274.537
252.228
271.81
298.33
295.343
283.654
290.527
285.069
252.75
291.21
266.863
285.676
252.166
256.942
286.674
255.656
297.61
291.833
266.736
298.003
288.465
293.053
296.414
280.587
270.472
296.836
296.979
265.025
289.769
297.177
264.4
265.905
278.026
297.458
289.208
295.786
284.438
270.721
266.139
262.133
253.127
288.514
273.832
296.5
262.951
281.74
271.164
275.878
278.363
281.268
285.268
281.984
264.855
266.139
290.569
298.276
255.238
262.172
293.655
255.856
273.464
279.13
290.895
277.036
297.713
252.786
297.87
281.32
277.065
256.662
257.347
254.595
266.218
288.85
275.697
279.293
255.894
297.397
261.748
284.856
280.054
286.137
287.578
296.586
276.671
286.073
275.808
255.359
253.62
279.742
273.268
283.294
296.343
256.256
262.984
266.247
252.257
274.79
297.365
271.091
260.04
278.234
271.382
295.247
291.628
257.228
290.632
296.87
257.179
252.112
266.332
280.304
283.452
252.172
275.257
285.078
253.941
276.934
289.899
287.154
265.357
272.402
293.008
276.151
263.471
255.702
280.479
283
271.776
277.566
265.523
265.339
251.493
265.412
294.05
275.815
284.215
270.366
288.625
293.733
263.373
276.693
289.739
296.087
287.888
271.529
291.079
266.012
265.711
290.542
296.075
255.826
260.267
256.409
253.698
291.538
281.932
258.106
251.743
283.102
272.264
251.885
259.284
292.131
278.188
267.842
271.92
260.152
292.401
282.643
298.105
257.601
293.938
291.221
295.863
261.597
274.105
288.451
283.923
265.96
288.843
264.832
283.349
251.583
256.026
280.099
268.046
263.564
256.387
277.932
279.825
279.76
295.678
253.515
260.123
272.944
293.759
282.281
275.289
297.101
251.945
268.624
283.46
276.606
297.49
269.002
272.736
274.836
271.585
271.513
259.938
287.054
282.569
265.657
264.474
262.025
289.296
253.106
296.426
291.865
298.197
294.945
257.49
289.157
266.862
271.458
280.574
276.561
257.492
257.743
281.488
273.476
287.908
253.303
270.539
259.521
252.464
292.376
269.795
274.864
261.027
266.425
265.393
271.932
269.14
294.844
252.211
291.478
274.238
269.996
286.837
273.403
290.296
258.446
292.919
284.27
260.745
259.762
261.148
280.302
293.732
261.329
296.975
274.41
258.245
285.86
268.224
258.202
277.156
279.6
274.04
266.425
278.086
262.11
288.319
287.539
274.393
269.423
258.984
273.131
261.802
280.976
281.513
290.099
256.698
257.584
252.907
284.93
256.687
285.058
285.282
255.813
252.936
266.151
278.429
268.656
276.135
293.06
286.235
286.011
269.653
298.006
265.132
283.928
260.12
253.569
284.598
296.67
258.406
257.011
286.068
259.496
273.802
275.727
289.274
256.338
269.957
255.218
279.704
264.941
293.38
274.981
294.609
294.063
260.431
270.128
258.335
296.48
267.236
272.145
280.769
260.101
298.06
286.858
262.438
288.19
267.806
290.196
290.958
260.006
251.906
274.068
279.59
259.646
260.65
272.792
257.81
270.157
266.395
291.528
263.266
287.453
275.955
297.491
268.235
280.653
294.807
297.499
287.607
260.203
298.29
258.852
252.076
263.35
284.8
297.482
293.595
267.688
251.853
292.555
286.548
287.227
297.258
253.138
285.338
289.831
291.699
262.03
265.875
291.144
279.976
276.077
295.096
268.445
270.29
283.732
272.343
251.823
283.122
254.916
267.318
252.091
274.129
297.822
287.01
262.198
289.781
256.863
284.704
279.655
273.721
257.876
277.908
291.43
287.82
260.213
251.98
285.524
268.553
272.279
293.402
283.182
263.06
269.835
284.542
277.685
288.019
293.041
280.984
278.12
294.117
255.314
258.299
290.347
280.999
257.679
290.794
282.011
251.564
262.271
271.117
251.908
272.464
277.762
283.462
283.227
272.965
263.179
265.134
288.587
275.727
259.945
281.575
263.308
256.383
270.83
252.27
257.728
293.318
264.324
266.235
255.047
255.451
269.334
275.571
264.606
283.305
264.038
270.669
277.783
288.208
255.604
276.375
252.087
271.114
277.748
287.657
280.848
278.595
270.871
260.098
258.219
263.125
253.963
280.189
256.062
297.574
258.491
272.561
284.404
259.712
281.88
280.601
262.643
288.259
254.569
256.068
268.231
255.273
272.298
254.566
293.613
287.967
298.11
292.4
255.575
274.756
255.166
267.309
290.988
253.458
268.609
259.643
252.724
260.502
294.627
252.648
252.18
293.31
255.624
274.635
267.102
297.461
294.304
275.253
266.759
293.714
292.846
262.542
252.038
270.47
276.631
252.872
296.814
286.314
293.589
273.302
293.629
277.218
291.842
280.43
252.083
261.661
266.722
251.971
268.579
271.136
280.655
251.965
298.109
270.329
297.393
263.764
284.066
267.319
293.366
287.992
262.644
269.34
286.691
252.106
282.103
277.911
278.417
258.616
268.73
290.631
267.721
277.918
288.156
293.597
283.376
262.486
267.64
258.954
254.375
258.76
289.614
280.378
298.059
278.287
295.676
271.747
267.359
287.218
261.858
269.583
271.002
262.562
279.03
279.651
299.672
288.554
286.591
252.12
298.954
277.062
252.521
261.184
261.774
297.691
284.814
287.144
293.559
272.867
265.856
278.468
275.099
282.55
291.761
259.842
275.486
270.002
270.193
261.507
253.531
294.136
298.247
269.305
275.088
272.711
275.468
298.315
277.833
271.638
263.655
286.54
276.582
289.385
273.275
262.886
291.523
284.287
258.164
267.561
256.824
251.754
298.836
293.948
272.576
271.431
259.268
285.178
277.686
276.909
255.049
265.275
258.599
257.337
277.551
290.432
252.704
295.774
291.962
280.559
271.783
264.399
279.771
279.737
278.99
281.522
284.986
285.828
266.682
263.245
283.152
295.271
274.784
291.119
287.331
291.517
296.517
288.086
279.048
272.627
251.049
295.601
287.673
251.572
254.707
251.418
251.186
254.643
255.409
251.218
276.38
278.508
299.704
294.828
299.165
293.781
298.968
295.798
298.454
258.258
280.999
284.37
266.966
265.849
271.774
273.244
285.977
266.937
272.47
270.389
261.572
257.494
267.538
288.244
292.794
294.762
268.501
290.828
258.984
261.598
278.121
276.709
269.564
276.338
278.695
295.232
293.634
260.675
299.813
295.053
283.186
261.025
259.35
276.99
287.797
299.629
294.001
283.139
285.767
264.146
264.575
279.473
277.217
266.029
255.168
251.179
253.937
292.17
257.428
250.98
293.276
285.37
282.363
294.393
254.677
264.801
252.821
298.47
253.784
272.865
281.163
295.142
284.67
271.049
287.134
291.739
295.998
269.08
272.14
281.295
275.971
286.153
279.171
277.159
264.999
283.088
257.904
254.305
258.019
251.407
251.375
261.766
282.965
259.016
277.75
297.284
271.136
267.796
266.985
287.012
279.041
259.759
279.638
298.832
285.445
252.094
298.097
252.489
297.709
259.842
278.527
266.302
284.648
262.846
292.862
288.14
277.997
274.722
282.053
290.99
259.709
275.228
269.823
270.024
261.404
273.723
253.474
251.305
297.563
297.352
270.816
276.684
259.245
256.948
272.82
297.967
277.339
257.622
286.33
254.888
260.297
289.107
291.51
251.915
291.02
298.424
293.254
251.082
272.045
258.163
271.525
271.691
284.816
277.757
276.986
265.145
255.547
254.191
261.432
289.467
295.079
291.402
280.484
264.742
279.624
271.75
278.71
281.254
257.95
284.855
285.758
266.159
253.864
262.795
257.83
283.079
260.607
294.726
274.906
290.853
267.812
258.931
286.006
267.318
261.372
288.545
291.577
295.789
287.734
278.824
272.462
253.979
294.929
287.287
251.182
254.626
276.216
278.327
298.724
298.126
293.182
297.805
295.27
298.099
251.137
258.188
289.844
280.827
284.157
266.849
265.081
271.739
273.808
285.702
262.141
258.312
259.013
275.524
267.698
288.722
292.418
294.288
268.511
290.517
273.606
261.553
288.893
260.02
277.551
276.33
294.736
293.262
260.605
298.85
254.66
283.045
261.108
259.359
287.514
298.601
291.049
293.502
282.725
285.587
280.176
277.119
266.001
251.21
291.715
254.842
257.569
252.172
284.925
281.98
293.798
264.929
288.223
286.777
253.083
298.21
259.831
272.752
281.103
294.973
275.469
270.876
287.071
285.743
291.382
295.46
268.937
272.098
290.622
275.746
280.183
252.58
265.224
285.839
278.973
276.948
264.884
282.844
257.86
282.442
263.308
270.897
250.992
252.502
266.027
261.679
258.949
284.707
257.254
)
;

boundaryField
{
    topExtWall
    {
        type            extendedWallHeatTransfer;
        K               k;
        radiation       0;
        Tinf            250;
        hc              2;
        alpha           50;

        radiationSources
        (
        );

        value           nonuniform List<scalar> 
128
(
250.259
250.236
250.241
250.25
250.462
253.154
250.276
250.239
253.079
250.379
250.356
250.777
250.245
250.383
250.249
250.411
250.216
250.843
250.423
250.425
250.241
250.501
250.973
250.437
250.32
250.297
251.123
250.216
250.231
250.46
251.303
250.327
250.765
251.043
250.27
250.233
250.243
250.242
250.274
250.277
250.312
251.955
250.233
251.615
250.609
250.337
250.268
250.282
250.282
250.238
250.249
250.306
250.245
253.067
250.34
253.205
250.354
250.235
250.762
250.238
250.247
250.38
250.218
250.407
250.238
250.224
250.238
250.826
250.419
250.253
250.347
250.952
250.433
250.317
250.295
251.093
250.455
250.461
251.263
250.228
250.27
250.235
250.376
250.221
250.268
250.258
251.047
250.278
250.241
250.272
250.276
250.73
250.546
250.408
250.311
251.885
250.231
250.335
250.28
251.659
250.254
250.241
250.281
256.726
250.518
250.572
250.647
250.309
250.242
250.352
250.235
250.251
250.228
250.252
250.208
250.293
250.287
256.597
250.512
250.565
250.637
250.225
250.585
250.233
250.25
250.224
250.252
250.279
)
;
    }
    toFluidR
    {
        type            chtRcTemperature;
        K               k;
        radiation       0;
        remoteField     T;
        value           nonuniform List<scalar> 
67
(
299.148
301.056
300.746
301.087
301.059
301.052
299.399
299.337
301.008
301.003
299.126
300.374
300.752
300.962
301.083
299.342
300.711
299.695
300.766
301.042
300.853
299.28
300.952
299.508
299.997
299.942
300.487
299.475
299.421
300.732
300.841
299.768
299.283
300.642
300.246
300.148
298.756
300.882
300.138
300.935
300.922
300.384
299.617
300.349
301.199
300.193
299.608
298.576
300.41
300.415
300.42
301.134
300.117
299.5
300.921
300.836
299.021
300.098
299.452
299.865
300.96
300.646
300.302
299.762
300.946
300.951
299.695
)
;
    }
    toFluidL
    {
        type            chtRcTemperature;
        K               k;
        radiation       0;
        remoteField     T;
        value           nonuniform List<scalar> 
67
(
298.887
300.048
297.807
299.522
300.109
300.174
300.164
299.119
300.125
300.136
298.702
298.675
298.697
299.532
300.095
300.1
299.263
299.751
298.987
299.45
299.792
300.143
300.015
300.09
299.301
299.268
299.439
299.461
299.666
299.523
299.892
299.895
299.237
299.703
299.407
299.453
299.95
299.466
300.037
299.097
299.894
298.885
299.408
300.331
299.487
298.512
299.409
299.574
299.18
298.743
300.249
299.169
299.302
300.074
299.982
299.143
299.128
299.161
299.149
299.476
300.025
299.438
298.844
299.388
300.021
299.894
299.328
)
;
    }
    defaultFaces
    {
        type            empty;
    }
}


// ************************************************************************* //
