/*--------------------------------*- C++ -*----------------------------------*\
| =========                 |                                                 |
| \\      /  F ield         | OpenFOAM Extend Project: Open source CFD        |
|  \\    /   O peration     | Version:  1.6-ext                               |
|   \\  /    A nd           | Web:      www.extend-project.de                 |
|    \\/     M anipulation  |                                                 |
\*---------------------------------------------------------------------------*/
FoamFile
{
    version     2.0;
    format      ascii;
    class       volScalarField;
    location    "1000";
    object      T;
}
// * * * * * * * * * * * * * * * * * * * * * * * * * * * * * * * * * * * * * //

dimensions      [0 0 0 1 0 0 0];

internalField   nonuniform List<scalar> 
100
(
425.354
427.871
430.405
432.958
435.527
461.354
463.94
466.527
469.116
471.705
425.348
427.852
430.387
432.942
435.513
461.351
463.938
466.526
469.115
471.705
425.293
427.805
430.348
432.91
435.486
461.346
463.934
466.523
469.114
471.705
425.169
427.725
430.291
432.866
435.448
461.339
463.929
466.52
469.112
471.704
425.045
427.636
430.224
432.813
435.404
461.33
463.923
466.516
469.11
471.703
424.932
427.548
430.156
432.759
435.358
461.321
463.917
466.512
469.107
471.702
424.833
427.47
430.094
432.709
435.315
461.312
463.911
466.508
469.105
471.702
424.749
427.404
430.042
432.666
435.279
461.305
463.906
466.505
469.103
471.701
424.683
427.354
430.003
432.635
435.252
461.3
463.902
466.503
469.102
471.701
424.641
427.326
429.983
432.619
435.238
461.297
463.9
466.501
469.101
471.7
)
;

boundaryField
{
    topAndBottom
    {
        type            zeroGradient;
    }
    left
    {
        type            chtRcTemperature;
        K               k;
        radiation       0;
        remoteField     T;
        value           nonuniform List<scalar> 10(424.099 424.119 424.072 423.892 423.744 423.617 423.507 423.412 423.335 423.278);
    }
    right
    {
        type            fixedValue;
        value           uniform 473;
    }
    frontAndBack
    {
        type            empty;
    }
}


// ************************************************************************* //
