/*--------------------------------*- C++ -*----------------------------------*\
| =========                 |                                                 |
| \\      /  F ield         | OpenFOAM Extend Project: Open source CFD        |
|  \\    /   O peration     | Version:  1.6-ext                               |
|   \\  /    A nd           | Web:      www.extend-project.de                 |
|    \\/     M anipulation  |                                                 |
\*---------------------------------------------------------------------------*/
FoamFile
{
    version     2.0;
    format      ascii;
    class       volScalarField;
    location    "2000";
    object      k;
}
// * * * * * * * * * * * * * * * * * * * * * * * * * * * * * * * * * * * * * //

dimensions      [1 1 -3 -1 0 0 0];

internalField   uniform 0.0026;

boundaryField
{
    topExtWall
    {
        type            zeroGradient;
    }
    toFluidR
    {
        type            chtRcThermalDiffusivitySlave;
        remoteField     kappaEff;
        value           nonuniform List<scalar> 
67
(
3.91965e-05
4.94618e-05
3.63238e-05
4.63035e-05
4.09461e-05
4.44787e-05
4.70414e-05
4.66574e-05
4.61427e-05
4.93642e-05
3.91103e-05
0.00617219
4.12528e-05
5.1771e-05
4.64304e-05
0.00607163
4.34791e-05
3.56984e-05
0.0116544
4.12162e-05
0.0126849
4.70328e-05
5.75383e-05
0.0473586
5.25962e-05
4.30994e-05
5.58475e-05
5.17612e-05
0.00597305
0.0232912
4.69928e-05
5.29585e-05
4.59657e-05
5.10459e-05
4.36462e-05
4.17218e-05
4.07853e-05
5.19582e-05
4.47128e-05
0.0137761
4.4623e-05
0.00654808
0.0124596
4.81325e-05
5.56039e-05
4.19376e-05
4.71384e-05
3.86564e-05
3.63266e-05
5.37507e-05
0.00829365
5.03178e-05
0.0116987
0.0141063
7.71947e-05
6.80875e-05
5.13558e-05
4.82363e-05
6.76082e-05
6.88852e-05
6.34431e-05
3.99583e-05
5.59785e-05
6.21592e-05
6.50165e-05
5.54905e-05
6.18117e-05
)
;
    }
    toFluidL
    {
        type            chtRcThermalDiffusivitySlave;
        remoteField     kappaEff;
        value           nonuniform List<scalar> 
67
(
4.14607e-05
4.94266e-05
3.32152e-05
3.6325e-05
4.61971e-05
4.08153e-05
4.43595e-05
4.61368e-05
4.60548e-05
4.92801e-05
4.16858e-05
3.74113e-05
0.00511206
4.12313e-05
5.16469e-05
4.63795e-05
0.00675639
4.31174e-05
4.62498e-05
4.74957e-05
0.0243128
4.10846e-05
0.046622
5.73121e-05
0.0951826
5.2535e-05
4.4591e-05
4.771e-05
5.78118e-05
0.00807154
4.55856e-05
4.68673e-05
4.54168e-05
5.03819e-05
4.69849e-05
4.8163e-05
5.01842e-05
4.85753e-05
0.0408352
5.11557e-05
4.34324e-05
0.00672917
4.704e-05
5.53279e-05
4.85575e-05
3.66583e-05
0.0121983
5.54743e-05
3.60497e-05
0.00951547
5.01071e-05
0.012364
6.43905e-05
7.65806e-05
6.78082e-05
6.12476e-05
5.83115e-05
4.83177e-05
6.43126e-05
6.86202e-05
5.96805e-05
3.99195e-05
4.2855e-05
6.10229e-05
6.11463e-05
5.53642e-05
6.10072e-05
)
;
    }
    defaultFaces
    {
        type            empty;
    }
}


// ************************************************************************* //
