/*--------------------------------*- C++ -*----------------------------------*\
| =========                 |                                                 |
| \\      /  F ield         | OpenFOAM Extend Project: Open source CFD        |
|  \\    /   O peration     | Version:  1.6-ext                               |
|   \\  /    A nd           | Web:      www.extend-project.de                 |
|    \\/     M anipulation  |                                                 |
\*---------------------------------------------------------------------------*/
FoamFile
{
    version     2.0;
    format      ascii;
    class       volScalarField;
    location    "2000";
    object      T;
}
// * * * * * * * * * * * * * * * * * * * * * * * * * * * * * * * * * * * * * //

dimensions      [0 0 0 1 0 0 0];

internalField   nonuniform List<scalar> 
1557
(
298.333
260.325
255.961
260.26
284.658
280.632
258.397
265.664
269.957
289.861
276.285
275.394
266.423
272.478
299.107
286.607
252.202
253.791
265.92
290.758
284.58
252.062
268.748
291.526
268.748
255.534
292.252
267.136
286.987
257.117
266.975
287.623
298.319
252.127
292.935
298.949
252.318
286.617
289.608
293.935
297.753
281.507
256.254
278.909
298.276
298.397
259.76
265.504
271.245
261.136
296.674
290.672
298.724
266.389
253.896
278.991
299.098
290.147
283.828
257.85
285.245
277.39
271.343
266.632
253.153
276.869
289.475
253.919
274.583
297.924
263.37
262.301
271.646
277.516
279.065
254.002
282.1
286.08
264.181
266.59
292.433
298.923
294.641
256.004
274.031
279.821
252.433
292.052
277.396
277.594
299.454
298.72
282.239
251.533
256.72
266.661
287.9
289.989
276.606
252.93
280.149
298.08
255.477
285.829
280.742
286.975
288.635
256.407
277.452
287.183
272.481
297.566
255.312
253.736
280.847
263.025
284.247
297.384
266.683
256.051
275.447
271.712
278.974
293.106
296.79
293.779
257.455
285.485
291.513
298.132
257.352
281.189
252.1
285.881
254.064
262.684
290.488
288.084
259.87
273.019
294.969
252.006
255.895
281.241
256.411
283.903
272.383
278.281
265.82
289.157
265.916
295.104
276.63
285.182
277.121
294.55
263.806
277.414
290.71
297.137
253.624
288.806
272.186
292.881
266.416
291.014
297.721
296.963
253.814
253.064
265.848
292.637
266.596
282.817
267.891
288.963
272.858
255.073
293.127
278.991
260.464
263.497
272.441
285.242
293.573
277.799
299.963
292.001
268.026
284.73
289.968
257.469
261.406
256.222
283.389
295.909
251.676
280.923
268.584
256.546
263.855
280.732
297.199
253.626
274.603
254.022
273.086
260.167
295.353
283.889
251.685
273.118
284.265
277.371
259.982
275.487
269.532
273.32
272.003
262.735
274.772
298.498
260.24
258.728
297.917
287.996
253.815
282.779
266.16
283.52
264.944
278.697
291.235
292.728
298.913
291.179
295.703
284.954
254.956
297.611
257.694
297.381
272.499
282.484
274.615
282.251
289.758
253.401
271.198
259.825
252.55
255.53
294.166
266.916
265.759
269.742
270.244
296.734
252.282
292.455
270.399
274.854
273.138
279.71
286.979
256.465
273.976
291.244
293.817
287.018
263.393
260.049
294.502
297.812
281.616
262.34
275.143
268.801
258.545
277.849
266.778
278.952
262.118
270.74
277.742
289.363
289.568
251.763
273.85
291.175
281.821
251.941
282.445
276.474
257.418
256.856
252.982
285.911
269.322
293.857
256.908
285.914
270.952
286.26
294.188
279.356
273.67
275.161
269.878
255.988
259.717
264.117
281.667
266.294
276.956
286.89
270.135
261.974
298.74
267.954
259.801
286.135
298.202
258.824
274.586
259.759
274.362
256.557
265.892
270.552
297.762
261.114
272.892
280.378
294.38
271.142
295.488
252.669
255.469
258.471
297.248
255.439
272.848
281.57
268.28
256.031
298.75
266.057
287.719
289.095
266.504
291.088
292.122
260.33
275.317
295.196
274.657
261.313
259.96
261
275.829
280.366
258.263
286.448
255.196
292.573
260.629
288.669
276.764
298.3
268.829
295.703
297.992
288.601
297.872
299.212
259.088
252.121
297.776
264.5
288.655
259.74
268.753
282.114
257.624
294.586
287.458
288.137
263.828
269.182
266.666
281.429
286.284
265.953
292.536
262.428
266.314
292.229
280.882
296.468
284.623
251.958
292.832
275.747
274.896
269.135
268.994
298.667
285.963
271.169
261.82
262.514
285.675
280.498
263.309
262.73
292.194
288.724
260.539
275.361
286.597
261.315
269.486
252.102
267.852
259.763
272.259
290.135
263.588
270.5
294.643
258.125
263.448
286.732
278.518
289.089
294.313
295.081
269.434
291.31
280.569
295.478
282.087
270.593
282.89
291.657
280.671
255.43
251.956
258.344
272.971
278.459
284.37
284.189
273.632
290.063
276.162
260.276
282.498
270.351
268.642
252.338
257.982
294.454
284.356
269.487
254.482
264.367
264.484
265.58
274.186
278.614
277.114
289.018
288.035
252.154
271.792
278.427
290.948
271.352
263.122
279.633
287.316
254.089
264.526
298.335
284.442
273.265
259.937
282.663
281.41
289.179
259.438
256.258
255.368
294.724
261.529
281.33
290.184
299.269
293.267
289.148
275.749
260.824
295.6
265.644
274.991
252.249
295.015
258.884
268.193
298.087
295.118
267.309
276.404
292.452
294.672
252.237
263.465
254.828
277.729
294.521
252.965
298.331
252.245
257.911
289.136
277.931
259.214
297.881
272.081
252.157
257.275
265.038
265.499
292.499
268.602
269.065
267.259
273.631
264.072
281.339
297.97
298.886
287.835
282.149
283.256
285.297
271.482
285.007
293.105
265.117
269.896
252.173
282.924
278.655
251.688
269.08
291.611
263.189
260.55
273.996
265.767
260.481
288.624
284.334
278.337
257.176
257.419
279.174
259.217
262.516
268.741
291.988
292.228
299.309
288.078
259.543
298.403
271.546
255.915
266.178
266.186
284.279
265.026
262.134
269.938
290.279
276.482
275.095
252.283
272.313
299.338
296.299
284.306
291.308
285.796
252.817
292.02
267.242
286.413
252.22
257.1
287.317
255.795
298.594
292.669
267.121
299.006
289.236
293.845
297.391
281.178
270.898
297.842
297.982
265.29
290.47
298.208
264.744
266.176
278.645
298.506
289.898
296.77
285.053
271.081
266.409
262.382
253.199
289.225
274.273
297.468
263.225
282.385
271.535
276.412
278.843
281.924
285.905
282.639
265.154
266.398
291.403
299.273
255.366
262.461
294.525
255.946
273.976
279.624
291.706
277.636
298.776
252.853
298.862
281.931
277.666
256.801
257.524
254.706
266.477
289.631
276.28
279.813
256.031
298.342
261.998
285.519
280.567
286.8
288.329
297.592
277.216
286.811
276.369
255.483
253.684
280.362
273.806
283.895
297.301
256.412
263.293
266.506
252.313
275.351
298.336
271.449
260.279
278.821
271.867
296.216
292.499
257.387
291.365
297.864
257.312
252.164
266.67
280.906
284.154
252.222
275.831
285.774
254.007
277.49
290.655
287.858
265.714
272.879
293.909
276.74
263.796
255.827
281.129
283.676
272.139
278.033
265.898
265.62
251.528
265.724
294.912
276.31
284.92
270.846
289.412
294.549
263.633
277.148
290.488
296.99
288.627
271.979
291.913
266.267
266.092
291.319
296.982
255.965
260.473
256.569
253.758
292.384
282.49
258.297
251.786
283.807
272.629
251.932
259.51
292.94
278.677
268.259
272.399
260.32
293.261
283.334
299.178
257.782
294.86
292.056
296.86
261.883
274.645
289.25
284.598
266.345
289.616
265.193
284.056
251.62
256.152
280.71
268.411
263.869
256.509
278.552
280.372
280.397
296.648
253.571
260.355
273.471
294.705
282.952
275.832
298.07
251.991
269.069
284.049
277.155
298.48
269.378
273.107
275.363
272.087
272.017
260.099
287.717
283.255
266.027
264.76
262.304
290.105
253.18
297.39
292.638
299.195
295.8
257.668
289.963
267.254
271.96
281.236
277.1
257.642
257.929
282.16
273.992
288.766
253.355
270.946
259.689
252.511
293.244
270.267
275.431
261.294
266.781
265.641
272.443
269.543
295.823
252.254
292.259
274.778
270.445
287.596
273.785
291.041
258.651
293.74
284.992
261.008
259.917
261.414
280.928
294.557
261.602
297.908
274.913
258.443
286.601
268.602
258.383
277.73
280.253
274.598
266.791
278.704
262.404
289.071
288.31
274.908
269.884
259.204
273.546
262.093
281.637
282.096
290.906
256.806
257.76
252.952
285.638
256.814
285.74
285.938
255.933
253.006
266.52
279.064
269.099
276.642
293.935
286.983
286.697
270.02
298.982
265.472
284.635
260.355
253.646
285.309
297.639
258.595
257.181
286.816
259.645
274.193
276.252
290.075
256.461
270.382
255.345
280.222
265.3
294.259
275.55
295.474
294.966
260.673
270.601
258.525
297.383
267.646
272.591
281.405
260.349
299.041
287.543
262.731
288.862
268.225
290.933
291.766
260.217
251.953
274.595
280.241
259.855
260.849
273.325
257.984
270.622
266.772
292.332
263.592
288.227
276.476
298.449
268.585
281.316
295.676
298.471
288.345
260.453
299.286
258.99
252.124
263.665
285.517
298.457
294.472
268.11
251.898
293.44
287.194
287.931
298.287
253.211
285.981
290.649
292.463
262.26
266.224
291.953
280.545
276.669
296.052
268.884
270.725
284.414
272.853
251.867
283.795
255.034
267.721
252.143
274.59
298.794
287.775
262.471
290.586
257.032
285.318
280.242
274.228
258.069
278.53
292.225
288.504
260.422
252.03
286.252
268.995
272.789
294.28
283.885
263.347
270.289
285.285
278.189
288.771
293.928
281.651
278.735
294.956
255.446
258.493
291.125
281.639
257.835
291.641
282.644
251.603
262.56
271.546
251.952
272.84
278.36
284.05
283.859
273.449
263.496
265.499
289.379
276.314
260.14
282.139
263.631
256.541
271.251
252.321
257.87
294.168
264.652
266.605
255.166
255.588
269.758
276.134
264.962
284.013
264.342
271.159
278.341
288.95
255.744
276.975
252.131
271.519
278.35
288.431
281.515
279.224
271.341
260.348
258.423
263.444
254.051
280.814
256.211
298.526
258.701
273.023
285.124
259.883
282.478
281.238
262.952
288.955
254.661
256.196
268.649
255.393
272.819
254.674
294.503
288.743
299.122
293.168
255.713
275.319
255.29
267.727
291.822
253.529
269.045
259.875
252.784
260.733
295.51
252.713
252.228
294.214
255.761
275.189
267.478
298.429
295.143
275.826
267.076
294.547
293.744
262.82
252.088
270.923
277.199
252.925
297.77
287.058
294.468
273.84
294.503
277.803
292.72
281.074
252.126
261.909
267.065
252.021
268.984
271.627
281.187
252.014
299.095
270.8
298.332
263.994
284.766
267.736
294.191
288.773
262.954
269.757
287.442
252.151
282.659
278.526
279.047
258.79
269.15
291.392
268.14
278.537
288.888
294.432
283.997
262.771
268.063
259.154
254.484
258.977
290.466
281.032
299.103
279.272
297.015
272.221
267.528
288.077
262.144
270.052
271.5
262.856
279.746
280.368
300.864
289.592
287.531
252.151
300.168
277.738
252.548
261.446
262.055
298.629
285.659
288.062
294.676
273.431
266.233
278.633
275.286
282.77
292.176
259.943
275.952
270.445
270.665
261.763
253.554
294.798
299.6
269.759
275.733
273.283
276.081
299.289
277.991
272.154
263.984
287.407
277.228
290.19
273.833
263.189
291.916
285.193
258.361
267.982
256.983
251.796
299.355
294.974
273.112
271.938
259.482
285.73
278.35
277.554
255.171
265.642
258.8
257.51
278.214
291.449
252.767
296.028
292.311
281.295
272.305
264.737
280.481
280.466
279.698
282.295
285.795
286.641
267.077
263.557
283.939
295.571
275.373
291.956
288.275
292.531
296.498
288.697
279.714
273.18
251.073
295.777
288.259
251.609
254.82
251.451
251.214
254.753
255.535
251.246
277.022
279.191
299.69
295.19
299.036
294.043
298.833
296.125
299.031
258.457
281.756
285.211
267.376
266.221
272.29
273.795
286.681
267.344
273.006
270.87
261.843
257.669
267.951
289.204
293.392
295.166
268.944
291.608
259.192
261.875
278.798
277.351
270.024
276.97
279.39
295.782
294.358
260.93
299.813
295.434
283.96
261.285
259.572
277.64
288.489
299.268
294.631
283.956
286.583
264.482
264.916
280.187
277.875
266.412
255.293
251.207
254.031
292.683
257.603
251.003
294.439
285.804
282.81
294.728
254.786
265.152
252.887
299.111
253.875
273.421
281.907
296.067
285.532
271.549
287.893
292.496
296.428
269.548
272.672
282.109
276.534
286.809
279.86
277.789
265.363
283.806
258.088
254.405
258.206
251.442
251.408
262.055
283.783
259.238
278.297
298.334
271.605
268.159
267.334
287.757
279.651
260.001
280.277
299.925
286.176
252.126
299.173
252.528
298.733
260.076
279.109
266.632
285.362
263.145
293.757
288.923
278.487
275.132
282.61
291.828
259.861
275.662
270.177
270.395
261.599
274.263
253.533
251.336
298.589
298.428
271.235
277.243
259.457
257.107
273.298
298.999
277.844
257.808
287.068
255.004
260.551
289.872
292.352
251.954
291.747
299.443
294.138
251.108
272.557
258.341
272.016
272.203
285.424
278.365
277.58
265.427
255.682
254.293
261.709
290.272
295.947
292.153
281.122
265.082
280.22
272.258
279.342
281.923
258.144
285.555
286.466
266.548
253.958
263.105
258.017
283.749
260.868
295.589
275.47
291.669
268.238
259.151
286.749
267.734
261.65
289.33
292.417
296.665
288.428
279.363
272.907
254.073
295.784
287.945
251.209
254.731
276.746
278.89
299.739
299.17
293.972
298.744
296.148
299.101
251.164
258.366
290.657
281.489
284.867
267.21
265.442
272.23
274.35
286.372
262.422
258.506
259.231
276.103
268.101
289.51
293.23
295.14
268.949
291.308
274.154
261.81
289.681
260.268
278.164
276.93
295.618
294.116
260.84
299.87
254.777
283.702
261.36
259.571
288.217
299.615
291.9
294.352
283.418
286.302
280.836
277.681
266.354
251.238
292.489
254.962
257.743
252.224
285.536
282.533
294.618
265.266
288.963
287.492
253.155
299.221
260.066
273.229
281.738
295.885
276.037
271.267
287.779
286.487
292.195
296.358
269.311
272.574
291.444
276.209
280.846
252.644
265.58
286.498
279.536
277.449
265.2
283.463
258.054
283.138
263.624
271.388
251.016
252.563
266.403
261.92
259.13
285.411
257.425
)
;

boundaryField
{
    topExtWall
    {
        type            extendedWallHeatTransfer;
        K               k;
        radiation       0;
        Tinf            250;
        hc              2;
        alpha           50;

        radiationSources
        (
        );

        value           nonuniform List<scalar> 
128
(
250.265
250.242
250.247
250.256
250.472
253.259
250.283
250.245
253.157
250.388
250.365
250.78
250.25
250.391
250.255
250.42
250.221
250.847
250.432
250.434
250.247
250.512
250.977
250.446
250.328
250.305
251.137
250.221
250.237
250.468
251.324
250.335
250.784
251.069
250.277
250.239
250.249
250.247
250.28
250.284
250.32
252.003
250.238
251.656
250.623
250.345
250.274
250.289
250.289
250.243
250.255
250.314
250.251
253.132
250.348
253.277
250.36
250.241
250.776
250.243
250.252
250.386
250.223
250.414
250.243
250.23
250.244
250.842
250.426
250.259
250.355
250.971
250.439
250.324
250.301
251.117
250.462
250.471
251.291
250.233
250.276
250.241
250.385
250.226
250.275
250.264
251.068
250.285
250.246
250.278
250.282
250.745
250.557
250.417
250.318
251.927
250.237
250.341
250.286
251.694
250.261
250.247
250.287
256.957
250.526
250.578
250.651
250.317
250.247
250.361
250.241
250.257
250.233
250.258
250.213
250.3
250.294
256.728
250.52
250.573
250.647
250.23
250.597
250.239
250.256
250.23
250.258
250.286
)
;
    }
    toFluidR
    {
        type            chtRcTemperature;
        K               k;
        radiation       0;
        remoteField     T;
        value           nonuniform List<scalar> 
67
(
299.392
300.957
300.221
301.286
301.953
302.026
300.253
300.603
302.104
302.179
299.757
302.186
300.109
302.204
301.142
300.584
300.426
299.248
302.454
301.789
302.481
300.447
302.258
300.79
300.374
300.033
300.29
300.705
300.811
302.351
300.597
300.579
300.308
300.349
299.884
299.847
299.86
300.701
300.137
302.566
300.626
302.216
301.021
300.028
301.776
299.824
300.283
299.564
299.489
300.146
302.242
301.787
301.878
301.015
302.339
302.315
299.887
301.787
300.374
300.237
300.845
300.516
299.966
300.225
300.816
300.633
300.213
)
;
    }
    toFluidL
    {
        type            chtRcTemperature;
        K               k;
        radiation       0;
        remoteField     T;
        value           nonuniform List<scalar> 
67
(
299.896
301.158
298.82
300.63
301.241
301.346
301.333
300.189
301.297
301.302
299.779
299.699
299.701
300.624
301.257
301.22
300.397
300.818
300.067
300.496
300.891
301.314
301.13
301.245
300.405
300.38
300.484
300.512
300.731
300.713
301.017
300.972
300.304
300.762
300.445
300.497
301.035
300.512
301.145
300.18
300.989
299.927
300.445
301.476
300.533
299.501
300.525
300.628
300.195
299.817
301.409
300.185
300.41
301.216
301.119
300.219
300.209
300.307
300.222
300.534
301.123
300.594
299.82
300.442
301.114
300.992
300.381
)
;
    }
    defaultFaces
    {
        type            empty;
    }
}


// ************************************************************************* //
