/*--------------------------------*- C++ -*----------------------------------*\
| =========                 |                                                 |
| \\      /  F ield         | OpenFOAM Extend Project: Open source CFD        |
|  \\    /   O peration     | Version:  1.6-ext                               |
|   \\  /    A nd           | Web:      www.extend-project.de                 |
|    \\/     M anipulation  |                                                 |
\*---------------------------------------------------------------------------*/
FoamFile
{
    version     2.0;
    format      ascii;
    class       volScalarField;
    location    "1000";
    object      p_rgh;
}
// * * * * * * * * * * * * * * * * * * * * * * * * * * * * * * * * * * * * * //

dimensions      [0 2 -2 0 0 0 0];

internalField   nonuniform List<scalar> 
200
(
1.08266e-11
-0.0010841
-0.0020516
-0.00252364
-0.00273341
-0.00282592
-0.00285868
-0.00289186
-0.00294047
-0.00309257
-0.000772486
-0.00214665
-0.00273413
-0.00294495
-0.0030019
-0.00298094
-0.00297174
-0.00314768
-0.00337947
-0.00361182
-0.00115671
-0.00327864
-0.00365049
-0.00365812
-0.00364494
-0.00382401
-0.00410586
-0.00440929
-0.00460298
-0.00490065
-0.00112245
-0.00411167
-0.00447482
-0.00462034
-0.0048134
-0.00525313
-0.00580107
-0.00622552
-0.00633887
-0.00599622
-0.000683083
-0.00452011
-0.00521808
-0.00554391
-0.00604898
-0.00680393
-0.00757819
-0.00801764
-0.00798551
-0.00716169
-9.25641e-05
-0.00492451
-0.00583304
-0.0063736
-0.00711277
-0.0081007
-0.00904317
-0.00944005
-0.00946604
-0.00823158
0.000248985
-0.00535964
-0.00641866
-0.00705308
-0.00788748
-0.00900479
-0.0101535
-0.0105527
-0.0106558
-0.00896512
0.000296802
-0.00568304
-0.00680072
-0.00740125
-0.00818163
-0.0092468
-0.0104655
-0.0106509
-0.0107843
-0.00848872
0.000193429
-0.00595991
-0.00703546
-0.00749601
-0.00813237
-0.00906809
-0.0101575
-0.0103948
-0.00995042
-0.00450645
-0.000255247
-0.00305399
-0.00491647
-0.00614846
-0.00712957
-0.00821537
-0.00935586
-0.00911315
-0.00682167
0.000986814
0.00926973
0.00736354
0.00559433
0.00393377
0.00289733
0.00281348
0.00415046
0.00752748
0.0126395
0.0158126
0.00861812
0.00661741
0.0047752
0.00294082
0.00165318
0.00122047
0.00202039
0.00440918
0.00766012
0.0105106
0.00652237
0.00473935
0.00313494
0.0014529
0.000203263
-0.000331129
0.000139435
0.00196556
0.0039043
0.00658526
0.00450909
0.00287373
0.00143937
-0.000114201
-0.00133432
-0.00192781
-0.00178952
-0.000423296
0.000555131
0.00330107
0.00321815
0.00162681
0.000321619
-0.00107494
-0.00221282
-0.00279029
-0.00288119
-0.00184163
-0.00145084
0.00150919
0.00274048
0.00118824
-4.08594e-05
-0.00132432
-0.00240429
-0.00294075
-0.00307614
-0.00225628
-0.00211812
0.0013104
0.00285812
0.00141737
0.000233488
-0.00100975
-0.0020703
-0.0026013
-0.00273941
-0.00176115
-0.00146004
0.00310411
0.00355092
0.00243728
0.00131222
7.29579e-06
-0.00114634
-0.00173625
-0.0018485
-0.000472733
0.000661631
0.00856754
0.00363746
0.0030536
0.00196534
0.000574294
-0.000676172
-0.00135769
-0.00153088
0.000427667
0.00452303
0.0214107
0.00580011
0.00859911
0.00650621
0.00398911
0.00207027
0.000984474
0.00161837
0.00620973
0.0143998
0.0358659
)
;

boundaryField
{
    movingWall
    {
        type            buoyantPressure;
        gradient        nonuniform List<scalar> 10(-4.31 -3.24088 -2.70924 -2.37554 -2.13695 -1.95139 -1.80707 -1.68731 -1.56901 -1.38191);
        rho             rhok;
        value           nonuniform List<scalar> 10(-0.0218053 -0.0192584 -0.0184627 -0.0180262 -0.0178143 -0.0179723 -0.0183912 -0.0175497 -0.0146667 -0.00592272);
    }
    left
    {
        type            buoyantPressure;
        gradient        nonuniform List<scalar> 10(0.147167 0.467024 0.877834 1.36689 1.91816 2.48249 3.06459 3.68595 4.18489 4.66583);
        rho             rhok;
        value           nonuniform List<scalar> 10(0.000735836 0.00156263 0.00323245 0.00571201 0.0089077 0.0123199 0.0155719 0.0187265 0.0211179 0.0230739);
    }
    right
    {
        type            buoyantPressure;
        gradient        nonuniform List<scalar> 10(-0.109214 -0.256402 -0.237801 -0.273698 -0.364567 -0.464785 -0.567738 -0.673273 -0.7831 -0.865312);
        rho             rhok;
        value           nonuniform List<scalar> 10(-0.00363864 -0.00489383 -0.00608965 -0.00736471 -0.00898452 -0.0105555 -0.0118038 -0.0118551 -0.00842195 -0.00333975);
    }
    bottom
    {
        type            buoyantPressure;
        gradient        uniform 0;
        rho             rhok;
        value           nonuniform List<scalar> 10(1.08266e-11 -0.0010841 -0.0020516 -0.00252364 -0.00273341 -0.00282592 -0.00285868 -0.00289186 -0.00294047 -0.00309257);
    }
    movingWall2
    {
        type            buoyantPressure;
        gradient        nonuniform List<scalar> 10(-0.206085 -0.0916894 -0.0369474 -0.0059979 0.012147 0.0223712 0.0249205 0.0252778 0.0256044 0.0735446);
        rho             rhok;
        value           nonuniform List<scalar> 10(0.00476969 0.00814066 0.00632147 0.00395912 0.002131 0.00109633 0.00174297 0.00633612 0.0145279 0.0362336);
    }
    left2
    {
        type            buoyantPressure;
        gradient        nonuniform List<scalar> 10(0.0800774 0.235682 0.378408 0.516372 0.646462 0.76726 0.87979 0.983002 1.07617 1.16408);
        rho             rhok;
        value           nonuniform List<scalar> 10(0.00967011 0.00979652 0.00841441 0.00709095 0.00645046 0.00657678 0.00725707 0.00846593 0.00901833 0.0116205);
    }
    right2
    {
        type            buoyantPressure;
        gradient        nonuniform List<scalar> 10(-0.0380603 -0.120729 -0.215381 -0.318056 -0.428192 -0.546197 -0.673254 -0.810357 -0.958522 -1.12406);
        rho             rhok;
        value           nonuniform List<scalar> 10(0.0156223 0.009907 0.00550836 0.00171079 -0.000631769 -0.00142059 -0.000262154 0.00451575 0.0166181 0.0302456);
    }
    bottom2
    {
        type            buoyantPressure;
        gradient        uniform -0;
        rho             rhok;
        value           nonuniform List<scalar> 10(0.00926973 0.00736354 0.00559433 0.00393377 0.00289733 0.00281348 0.00415046 0.00752748 0.0126395 0.0158126);
    }
    frontAndBack
    {
        type            empty;
    }
}


// ************************************************************************* //
