/*--------------------------------*- C++ -*----------------------------------*\
| =========                 |                                                 |
| \\      /  F ield         | OpenFOAM Extend Project: Open source CFD        |
|  \\    /   O peration     | Version:  1.6-ext                               |
|   \\  /    A nd           | Web:      www.extend-project.de                 |
|    \\/     M anipulation  |                                                 |
\*---------------------------------------------------------------------------*/
FoamFile
{
    version     2.0;
    format      ascii;
    class       surfaceScalarField;
    location    "1000";
    object      phi;
}
// * * * * * * * * * * * * * * * * * * * * * * * * * * * * * * * * * * * * * //

dimensions      [0 3 -1 0 0 0 0];

internalField   nonuniform List<scalar> 
360
(
2.99918e-06
-2.99918e-06
4.18877e-06
-1.1896e-06
4.57297e-06
-3.84198e-07
4.50561e-06
6.73641e-08
4.14238e-06
3.63232e-07
3.58857e-06
5.5381e-07
2.91022e-06
6.78344e-07
2.09871e-06
8.11508e-07
1.18118e-06
9.17537e-07
1.18118e-06
1.73932e-06
-4.7385e-06
2.53496e-06
-1.98524e-06
2.78988e-06
-6.39116e-07
2.67587e-06
1.81373e-07
2.17302e-06
8.66088e-07
1.3729e-06
1.35392e-06
3.89623e-07
1.66162e-06
-4.75293e-07
1.67642e-06
-7.58948e-07
1.20119e-06
4.22229e-07
6.21969e-07
-5.36046e-06
7.50614e-07
-2.11389e-06
5.5139e-07
-4.39892e-07
6.18491e-09
7.26578e-07
-8.25798e-07
1.69807e-06
-1.79595e-06
2.32408e-06
-2.6354e-06
2.50107e-06
-2.98925e-06
2.03028e-06
-2.46572e-06
6.77657e-07
-2.04349e-06
-3.59687e-07
-5.00078e-06
-9.10749e-07
-1.56282e-06
-1.60883e-06
2.58185e-07
-2.38261e-06
1.50036e-06
-3.15988e-06
2.47534e-06
-3.89133e-06
3.05554e-06
-4.32593e-06
2.93567e-06
-4.11114e-06
1.81549e-06
-2.82346e-06
-6.10027e-07
-4.86695e-06
-1.06742e-06
-3.93336e-06
-2.0475e-06
-5.82743e-07
-2.86684e-06
1.07752e-06
-3.55054e-06
2.18406e-06
-4.1493e-06
3.0741e-06
-4.57749e-06
3.48373e-06
-4.64032e-06
2.99849e-06
-4.01319e-06
1.18837e-06
-2.46233e-06
-2.16089e-06
-7.32928e-06
-1.42293e-06
-2.51043e-06
-2.50433e-06
4.9866e-07
-3.20922e-06
1.78241e-06
-3.69969e-06
2.67453e-06
-4.02116e-06
3.39557e-06
-4.15389e-06
3.61646e-06
-4.00584e-06
2.85044e-06
-3.29531e-06
4.77844e-07
-1.92382e-06
-3.53238e-06
-9.2531e-06
-1.70719e-06
-8.03243e-07
-2.61938e-06
1.41085e-06
-3.03921e-06
2.20224e-06
-3.15784e-06
2.79317e-06
-3.0693e-06
3.30702e-06
-2.84878e-06
3.39594e-06
-2.61117e-06
2.61283e-06
-2.14521e-06
1.1881e-08
-1.17358e-06
-4.50401e-06
-1.04267e-05
-2.09076e-06
1.28752e-06
-2.6546e-06
1.97469e-06
-2.64934e-06
2.19697e-06
-2.29223e-06
2.43606e-06
-1.71153e-06
2.72632e-06
-1.03983e-06
2.72424e-06
-3.94047e-07
1.96705e-06
-2.14047e-08
-3.60761e-07
-1.56e-08
-4.50981e-06
-1.04423e-05
-2.23286e-06
3.52038e-06
-2.27589e-06
2.01772e-06
-1.71374e-06
1.63482e-06
-8.11543e-07
1.53387e-06
3.91149e-07
1.52363e-06
1.64136e-06
1.47402e-06
2.71025e-06
8.98159e-07
3.1105e-06
-7.61009e-07
2.03605e-06
-3.43536e-06
-8.40623e-06
3.52038e-06
5.5381e-06
7.17292e-06
8.70679e-06
1.02304e-05
1.17044e-05
1.26026e-05
1.18416e-05
8.40623e-06
-3.71926e-06
3.71926e-06
-6.94022e-06
3.22096e-06
-9.49459e-06
2.55437e-06
-1.14175e-05
1.92287e-06
-1.26532e-05
1.23577e-06
-1.30808e-05
4.27556e-07
-1.24964e-05
-5.84334e-07
-1.06014e-05
-1.89506e-06
-6.94788e-06
-3.6535e-06
-6.94788e-06
-2.80485e-06
6.5241e-06
-5.40388e-06
5.81999e-06
-7.5651e-06
4.7156e-06
-9.17663e-06
3.53439e-06
-1.01472e-05
2.20634e-06
-1.03704e-05
6.50802e-07
-9.7438e-06
-1.21098e-06
-8.05365e-06
-3.58521e-06
-4.99246e-06
-6.71469e-06
-1.19403e-05
-1.89934e-06
8.42344e-06
-3.77205e-06
7.6927e-06
-5.35905e-06
6.3026e-06
-6.53896e-06
4.7143e-06
-7.24212e-06
2.9095e-06
-7.40395e-06
8.12635e-07
-6.97718e-06
-1.63775e-06
-5.78659e-06
-4.77581e-06
-3.55941e-06
-8.94186e-06
-1.54998e-05
-1.03157e-06
9.45501e-06
-2.15931e-06
8.82043e-06
-3.133e-06
7.27629e-06
-3.86286e-06
5.44416e-06
-4.32557e-06
3.37221e-06
-4.48621e-06
9.7328e-07
-4.37057e-06
-1.75339e-06
-3.83526e-06
-5.31112e-06
-2.49161e-06
-1.02855e-05
-1.79914e-05
-2.69216e-07
9.72423e-06
-7.01162e-07
9.25238e-06
-1.09131e-06
7.66644e-06
-1.3797e-06
5.73256e-06
-1.58597e-06
3.57848e-06
-1.75148e-06
1.1388e-06
-1.97094e-06
-1.53393e-06
-2.07406e-06
-5.208e-06
-1.57027e-06
-1.07893e-05
-1.95616e-05
3.13624e-07
9.41061e-06
5.27114e-07
9.03889e-06
6.99899e-07
7.49365e-06
8.24523e-07
5.60793e-06
8.48404e-07
3.55459e-06
6.44306e-07
1.34289e-06
1.6983e-07
-1.05945e-06
-4.27733e-07
-4.61044e-06
-6.72393e-07
-1.05447e-05
-2.0234e-05
6.86538e-07
8.72407e-06
1.49749e-06
8.22794e-06
2.20947e-06
6.78167e-06
2.69892e-06
5.11849e-06
2.87182e-06
3.38169e-06
2.61608e-06
1.59864e-06
1.94023e-06
-3.83605e-07
1.07257e-06
-3.74277e-06
3.79008e-07
-9.85109e-06
-1.9855e-05
7.29868e-07
7.9942e-06
2.19225e-06
6.76556e-06
3.49737e-06
5.47655e-06
4.3782e-06
4.23765e-06
4.73815e-06
3.02174e-06
4.51031e-06
1.82648e-06
3.83359e-06
2.9312e-07
2.97359e-06
-2.88278e-06
1.75253e-06
-8.63004e-06
-1.81025e-05
6.84311e-07
7.30989e-06
3.00856e-06
4.44131e-06
5.01865e-06
3.46646e-06
6.44137e-06
2.81493e-06
7.28275e-06
2.18037e-06
7.59157e-06
1.51765e-06
7.62429e-06
2.604e-07
6.86617e-06
-2.12465e-06
4.30339e-06
-6.06726e-06
-1.37991e-05
7.30989e-06
1.17512e-05
1.52177e-05
1.80326e-05
2.0213e-05
2.17306e-05
2.1991e-05
1.98664e-05
1.37991e-05
)
;

boundaryField
{
    movingWall
    {
        type            calculated;
        value           nonuniform List<scalar> 10(6.77626e-21 1.69407e-21 0 -1.69407e-21 -8.47033e-22 0 -8.47033e-22 -4.23516e-22 0 -8.47033e-22);
    }
    left
    {
        type            calculated;
        value           nonuniform List<scalar> 10(2.11758e-22 0 0 8.47033e-22 0 3.38813e-21 0 6.77626e-21 0 0);
    }
    right
    {
        type            calculated;
        value           nonuniform List<scalar> 10(2.11758e-22 -4.23516e-22 0 2.11758e-22 -2.11758e-22 0 -2.11758e-22 4.23516e-22 0 0);
    }
    bottom
    {
        type            calculated;
        value           uniform 0;
    }
    movingWall2
    {
        type            calculated;
        value           nonuniform List<scalar> 10(0 2.64698e-23 -1.32349e-23 -1.65436e-24 0 3.30872e-24 0 0 0 0);
    }
    left2
    {
        type            calculated;
        value           nonuniform List<scalar> 10(0 0 -2.11758e-22 0 -2.11758e-22 0 -4.23516e-22 0 0 0);
    }
    right2
    {
        type            calculated;
        value           nonuniform List<scalar> 10(0 0 0 0 0 -1.05879e-22 1.05879e-22 0 0 0);
    }
    bottom2
    {
        type            calculated;
        value           uniform 0;
    }
    frontAndBack
    {
        type            empty;
    }
}


// ************************************************************************* //
