/*--------------------------------*- C++ -*----------------------------------*\
| =========                 |                                                 |
| \\      /  F ield         | OpenFOAM Extend Project: Open source CFD        |
|  \\    /   O peration     | Version:  1.6-ext                               |
|   \\  /    A nd           | Web:      www.extend-project.de                 |
|    \\/     M anipulation  |                                                 |
\*---------------------------------------------------------------------------*/
FoamFile
{
    version     2.0;
    format      ascii;
    class       volScalarField;
    location    "1000";
    object      T;
}
// * * * * * * * * * * * * * * * * * * * * * * * * * * * * * * * * * * * * * //

dimensions      [0 0 0 1 0 0 0];

internalField   nonuniform List<scalar> 
200
(
288.002
290.978
292.524
293.629
294.619
295.595
296.667
298.014
299.955
304.375
288.869
293.336
294.552
294.964
295.444
296.289
297.765
300.534
303.849
307.584
290.897
297.379
298.252
298.175
298.569
300.243
302.84
306.111
309.505
312.696
292.905
300.553
301.269
301.545
302.529
304.63
307.38
310.235
312.589
313.833
294.726
302.64
303.917
304.496
305.787
307.807
310.067
311.963
313.018
313.639
296.005
304.264
305.739
306.596
307.902
309.599
311.235
312.296
312.639
313.401
297.03
305.37
306.943
307.879
309.036
310.376
311.515
312.051
312.187
313.207
298.049
306.017
307.652
308.547
309.494
310.521
311.327
311.525
311.812
313.043
298.094
305.93
307.71
308.617
309.447
310.31
310.874
311.144
311.674
312.884
298.033
303.482
306.191
307.892
309.108
310.054
310.79
311.4
312.003
312.957
366.771
367.826
368
368.104
368.197
368.29
368.388
368.512
368.711
369.12
366.732
367.911
368.067
368.109
368.122
368.126
368.132
368.186
368.362
368.898
366.611
367.882
368.004
367.968
367.893
367.816
367.772
367.794
367.952
368.609
366.423
367.826
367.947
367.873
367.754
367.642
367.578
367.559
367.652
368.368
366.169
367.749
367.912
367.839
367.718
367.608
367.535
367.454
367.434
368.15
365.896
367.608
367.864
367.831
367.739
367.661
367.592
367.437
367.278
367.938
365.626
367.396
367.757
367.795
367.753
367.704
367.634
367.444
367.174
367.721
365.348
367.15
367.573
367.68
367.687
367.66
367.595
367.381
367.082
367.493
365.06
366.817
367.231
367.379
367.426
367.422
367.363
367.169
366.925
367.252
364.808
365.64
366.055
366.299
366.449
366.539
366.57
366.583
366.595
366.969
)
;

boundaryField
{
    movingWall
    {
        type            fixedValue;
        value           uniform 320;
    }
    left
    {
        type            fixedValue;
        value           uniform 273;
    }
    right
    {
        type            chtRcTemperature;
        K               kappaEff;
        radiation       1;
        remoteField     T;
        value           nonuniform List<scalar> 10(315.508 316.297 317.544 317.818 317.768 317.708 317.659 317.618 317.579 317.599);
    }
    bottom
    {
        type            adiabatic;
        K               kappaEff;
        value           nonuniform List<scalar> 10(297.503 298.781 299.482 299.995 300.442 300.867 301.322 301.899 302.718 304.461);
    }
    movingWall2
    {
        type            adiabatic;
        K               kappaEff;
        value           nonuniform List<scalar> 10(365.858 366.108 366.244 366.33 366.387 366.425 366.443 366.454 366.464 366.594);
    }
    left2
    {
        type            chtRcTemperature;
        K               kappaEff;
        radiation       1;
        remoteField     T;
        value           nonuniform List<scalar> 10(358.608 358.724 358.896 358.903 358.847 358.786 358.727 358.668 358.607 358.562);
    }
    right2
    {
        type            fixedValue;
        value           uniform 373;
    }
    bottom2
    {
        type            adiabatic;
        K               kappaEff;
        value           nonuniform List<scalar> 10(366.456 366.801 366.872 366.92 366.965 367.01 367.057 367.112 367.184 367.291);
    }
    frontAndBack
    {
        type            empty;
    }
}


// ************************************************************************* //
