/*--------------------------------*- C++ -*----------------------------------*\
| =========                 |                                                 |
| \\      /  F ield         | OpenFOAM Extend Project: Open source CFD        |
|  \\    /   O peration     | Version:  1.6-ext                               |
|   \\  /    A nd           | Web:      www.extend-project.de                 |
|    \\/     M anipulation  |                                                 |
\*---------------------------------------------------------------------------*/
FoamFile
{
    version     2.0;
    format      ascii;
    class       volVectorField;
    location    "1000";
    object      U;
}
// * * * * * * * * * * * * * * * * * * * * * * * * * * * * * * * * * * * * * //

dimensions      [0 1 -1 0 0 0 0];

internalField   nonuniform List<vector> 
200
(
(0.0193201 -0.0231439 0)
(0.037235 -0.0106598 0)
(0.0454421 -0.00453314 0)
(0.0465798 -0.001142 0)
(0.0438916 0.00106863 0)
(0.0390814 0.00231295 0)
(0.0328292 0.00280806 0)
(0.0253658 0.00337962 0)
(0.0165748 0.0046412 0)
(0.0075393 0.00763527 0)
(0.00893943 -0.0410162 0)
(0.0231424 -0.0168871 0)
(0.0276283 -0.00535009 0)
(0.028444 0.00102942 0)
(0.025206 0.00519265 0)
(0.0184006 0.00845195 0)
(0.00931753 0.0112965 0)
(-0.0016245 0.0136002 0)
(-0.00808589 0.0137456 0)
(-0.00470809 0.015233 0)
(0.00147875 -0.053374 0)
(0.0084734 -0.0228838 0)
(0.00716099 -0.0077726 0)
(0.00373995 0.00265067 0)
(-0.00333866 0.0125277 0)
(-0.0130393 0.0189102 0)
(-0.0228678 0.021941 0)
(-0.0298201 0.0202206 0)
(-0.0291514 0.0121551 0)
(-0.018652 -0.00537951 0)
(-0.00381403 -0.0536384 0)
(-0.00505098 -0.0189597 0)
(-0.0125888 -0.000725961 0)
(-0.0198932 0.0119197 0)
(-0.0274787 0.0214432 0)
(-0.0356273 0.0276716 0)
(-0.0422671 0.0281716 0)
(-0.044241 0.0203176 0)
(-0.0379098 0.000980968 0)
(-0.0164827 -0.0362586 0)
(-0.00772413 -0.0453468 0)
(-0.0151286 -0.0111583 0)
(-0.0253155 0.00692815 0)
(-0.0321283 0.0187774 0)
(-0.0387144 0.0282929 0)
(-0.0442829 0.0333064 0)
(-0.047411 0.0301667 0)
(-0.0453122 0.0152758 0)
(-0.0361841 -0.0144935 0)
(-0.00973316 -0.0623446 0)
(-0.0104727 -0.0323959 0)
(-0.0199495 5.05518e-05 0)
(-0.0293205 0.014951 0)
(-0.0348644 0.0250763 0)
(-0.0389821 0.0332006 0)
(-0.0415226 0.036233 0)
(-0.0419411 0.0296192 0)
(-0.0377313 0.00819773 0)
(-0.0312838 -0.0296086 0)
(-0.00180554 -0.0846256 0)
(-0.0134339 -0.01782 0)
(-0.0225514 0.00960277 0)
(-0.0291613 0.0203604 0)
(-0.0314685 0.0280987 0)
(-0.0314998 0.034341 0)
(-0.0299 0.0354933 0)
(-0.0281153 0.02626 0)
(-0.0234971 -0.00127868 0)
(-0.0239669 -0.0427356 0)
(0.00816035 -0.101492 0)
(-0.0178202 0.0045264 0)
(-0.0250221 0.0195188 0)
(-0.0274929 0.0242922 0)
(-0.0252495 0.0281563 0)
(-0.0204088 0.0320515 0)
(-0.013573 0.0326136 0)
(-0.00971581 0.0258585 0)
(0.00285295 0.0015573 0)
(-0.00991754 -0.0478368 0)
(0.0210253 -0.109926 0)
(-0.0191669 0.0190088 0)
(-0.0244021 0.0160998 0)
(-0.0207601 0.0165584 0)
(-0.0131283 0.0181595 0)
(-0.00295056 0.0203437 0)
(0.0110847 0.0205195 0)
(0.0190421 0.0126623 0)
(0.0342934 -0.0103745 0)
(0.02029 -0.0446038 0)
(0.0386534 -0.0966517 0)
(0.0366089 0.0485306 0)
(0.044297 0.0285438 0)
(0.063518 0.0199263 0)
(0.0796981 0.0156397 0)
(0.0945972 0.0131383 0)
(0.10984 0.0113883 0)
(0.122623 0.00806834 0)
(0.128601 0.000959307 0)
(0.103802 -0.0153744 0)
(0.0842415 -0.0608103 0)
(-0.0254234 0.0238382 0)
(-0.0546055 0.0189167 0)
(-0.0841747 0.013726 0)
(-0.106298 0.00930033 0)
(-0.122335 0.00474675 0)
(-0.131179 -0.000414555 0)
(-0.131069 -0.00676363 0)
(-0.118622 -0.0155232 0)
(-0.0891696 -0.0286342 0)
(-0.0464471 -0.0528845 0)
(-0.0181155 0.051377 0)
(-0.0414438 0.0458319 0)
(-0.0666111 0.0372934 0)
(-0.0853225 0.0286008 0)
(-0.0985388 0.0189139 0)
(-0.104881 0.00731857 0)
(-0.102918 -0.00736225 0)
(-0.0910953 -0.0264174 0)
(-0.0686477 -0.051911 0)
(-0.0283158 -0.0971105 0)
(-0.0117542 0.0762624 0)
(-0.0283316 0.0689113 0)
(-0.0471013 0.0560458 0)
(-0.0607338 0.0415858 0)
(-0.0704379 0.025048 0)
(-0.0749417 0.00574381 0)
(-0.0735376 -0.0165791 0)
(-0.0643307 -0.0446773 0)
(-0.0521059 -0.0815023 0)
(-0.0157146 -0.140752 0)
(-0.00622937 0.091352 0)
(-0.0156858 0.0841795 0)
(-0.0275631 0.0691895 0)
(-0.0357709 0.0517547 0)
(-0.0420214 0.0319785 0)
(-0.0449461 0.00898693 0)
(-0.0454767 -0.0177224 0)
(-0.0393694 -0.0520269 0)
(-0.0397109 -0.0982472 0)
(-0.00589804 -0.169823 0)
(-0.00171828 0.0976343 0)
(-0.00442454 0.0919936 0)
(-0.00976448 0.0760292 0)
(-0.0127247 0.0568035 0)
(-0.0156239 0.0350862 0)
(-0.0163825 0.00981421 0)
(-0.0199581 -0.0181341 0)
(-0.0158004 -0.054472 0)
(-0.0294805 -0.107489 0)
(0.00327084 -0.189988 0)
(0.00144796 0.0971289 0)
(0.00457987 0.0932569 0)
(0.00566365 0.0774907 0)
(0.00773851 0.0580882 0)
(0.00783411 0.0367715 0)
(0.00899107 0.013466 0)
(0.00211321 -0.0120788 0)
(0.00568987 -0.0498662 0)
(-0.0195228 -0.108396 0)
(0.0126752 -0.201479 0)
(0.00314902 0.091096 0)
(0.010976 0.0873563 0)
(0.018502 0.0722488 0)
(0.025138 0.0540507 0)
(0.0281223 0.0345371 0)
(0.0293726 0.0139654 0)
(0.0210037 -0.00863943 0)
(0.0218915 -0.0419539 0)
(-0.00701726 -0.102672 0)
(0.0232499 -0.204349 0)
(0.00224682 0.0850913 0)
(0.0140794 0.0788482 0)
(0.0289024 0.0651362 0)
(0.0403867 0.0500996 0)
(0.0464931 0.0349311 0)
(0.0482989 0.0201579 0)
(0.0397638 0.00385364 0)
(0.0402987 -0.0307608 0)
(0.0109143 -0.0945252 0)
(0.0376428 -0.195387 0)
(0.000442234 0.070516 0)
(0.017266 0.0491054 0)
(0.0410263 0.0392757 0)
(0.0585409 0.0310934 0)
(0.0697047 0.0225878 0)
(0.0760182 0.0135448 0)
(0.0735849 -0.0027507 0)
(0.0791936 -0.0331634 0)
(0.0475433 -0.0820621 0)
(0.0647112 -0.162713 0)
(0.0644737 0.0823721 0)
(0.0939401 0.0515258 0)
(0.135594 0.037555 0)
(0.167846 0.0298214 0)
(0.192662 0.0243279 0)
(0.211064 0.0195457 0)
(0.222119 0.0127354 0)
(0.217915 -0.000535902 0)
(0.172164 -0.0267954 0)
(0.134825 -0.0981023 0)
)
;

boundaryField
{
    movingWall
    {
        type            fixedValue;
        value           uniform (1 0 0);
    }
    left
    {
        type            fixedValue;
        value           uniform (0 0 0);
    }
    right
    {
        type            fixedValue;
        value           uniform (0 0 0);
    }
    bottom
    {
        type            fixedValue;
        value           uniform (0 0 0);
    }
    movingWall2
    {
        type            fixedValue;
        value           uniform (2 0 0);
    }
    left2
    {
        type            fixedValue;
        value           uniform (0 0 0);
    }
    right2
    {
        type            fixedValue;
        value           uniform (0 0 0);
    }
    bottom2
    {
        type            fixedValue;
        value           uniform (0 0 0);
    }
    frontAndBack
    {
        type            empty;
    }
}


// ************************************************************************* //
