/*--------------------------------*- C++ -*----------------------------------*\
| =========                 |                                                 |
| \\      /  F ield         | OpenFOAM Extend Project: Open source CFD        |
|  \\    /   O peration     | Version:  1.6-ext                               |
|   \\  /    A nd           | Web:      www.extend-project.de                 |
|    \\/     M anipulation  |                                                 |
\*---------------------------------------------------------------------------*/
FoamFile
{
    version     2.0;
    format      ascii;
    class       volScalarField;
    location    "1000";
    object      T;
}
// * * * * * * * * * * * * * * * * * * * * * * * * * * * * * * * * * * * * * //

dimensions      [0 0 0 1 0 0 0];

internalField   nonuniform List<scalar> 
100
(
461.601
462.285
462.941
463.577
464.197
470.281
470.887
471.492
472.095
472.698
461.644
462.314
462.961
463.592
464.209
470.283
470.888
471.493
472.096
472.699
461.717
462.365
462.998
463.619
464.232
470.287
470.891
471.494
472.097
472.699
461.811
462.431
463.046
463.656
464.262
470.293
470.895
471.497
472.098
472.699
461.914
462.504
463.099
463.696
464.296
470.299
470.899
471.5
472.1
472.7
462.014
462.572
463.148
463.735
464.328
470.305
470.904
471.502
472.101
472.7
462.083
462.623
463.188
463.767
464.356
470.311
470.908
471.505
472.103
472.701
462.099
462.647
463.212
463.79
464.376
470.315
470.911
471.507
472.104
472.701
462.092
462.655
463.225
463.803
464.389
470.319
470.913
471.509
472.105
472.702
462.079
462.654
463.23
463.81
464.396
470.32
470.914
471.509
472.105
472.702
)
;

boundaryField
{
    topAndBottom
    {
        type            zeroGradient;
    }
    left
    {
        type            chtRcTemperature;
        K               k;
        radiation       0;
        remoteField     T;
        value           nonuniform List<scalar> 10(461.237 461.294 461.382 461.496 461.62 461.751 461.84 461.837 461.814 461.784);
    }
    right
    {
        type            fixedValue;
        value           uniform 473;
    }
    frontAndBack
    {
        type            empty;
    }
}


// ************************************************************************* //
