/*--------------------------------*- C++ -*----------------------------------*\
| =========                 |                                                 |
| \\      /  F ield         | OpenFOAM Extend Project: Open source CFD        |
|  \\    /   O peration     | Version:  1.6-ext                               |
|   \\  /    A nd           | Web:      www.extend-project.de                 |
|    \\/     M anipulation  |                                                 |
\*---------------------------------------------------------------------------*/
FoamFile
{
    version     2.0;
    format      ascii;
    class       volScalarField;
    location    "1000";
    object      T;
}
// * * * * * * * * * * * * * * * * * * * * * * * * * * * * * * * * * * * * * //

dimensions      [0 0 0 1 0 0 0];

internalField   nonuniform List<scalar> 
100
(
459.101
459.938
460.739
461.515
462.272
469.687
470.425
471.162
471.898
472.633
459.152
459.973
460.765
461.535
462.288
469.689
470.427
471.163
471.898
472.633
459.244
460.038
460.812
461.57
462.317
469.695
470.431
471.165
471.9
472.633
459.367
460.125
460.874
461.617
462.355
469.701
470.435
471.168
471.901
472.634
459.506
460.221
460.942
461.668
462.397
469.709
470.44
471.172
471.903
472.634
459.639
460.309
461.005
461.716
462.437
469.717
470.446
471.175
471.905
472.635
459.736
460.373
461.052
461.754
462.469
469.724
470.45
471.178
471.907
472.636
459.748
460.395
461.077
461.778
462.492
469.729
470.454
471.181
471.908
472.636
459.691
460.383
461.082
461.789
462.505
469.732
470.457
471.183
471.909
472.636
459.627
460.363
461.079
461.793
462.51
469.734
470.458
471.183
471.91
472.637
)
;

boundaryField
{
    topAndBottom
    {
        type            zeroGradient;
    }
    left
    {
        type            chtRcTemperature;
        K               k;
        radiation       0;
        remoteField     T;
        value           nonuniform List<scalar> 10(458.657 458.721 458.83 458.981 459.153 459.321 459.461 459.458 459.349 459.227);
    }
    right
    {
        type            fixedValue;
        value           uniform 473;
    }
    frontAndBack
    {
        type            empty;
    }
}


// ************************************************************************* //
